 TITLE="euler solver on unstructured grid" 
 VARIABLES= "X" "Y"  "P" "Rou" "U"  "V"  "nuT"
 ZONE NODES=       11173  ELEMENTS=       18178  ZONETYPE=FEQUADRILATERAL
 DATAPACKING=BLOCK
 VARLOCATION=([3-7]=CELLCENTERED)
 -0.306880201798929     
 -0.301887149948806     
 -0.302447432403867     
 -0.306346468471611     
  -7.44309424300198     
  -9.10317611091674     
 -0.300540519946806     
   9.48405587171030     
   9.43757120637344     
 -0.311842063023335     
   8.73912666072008     
  -9.91618130226509     
 -0.309317877121488     
   8.81781933060967     
   8.42305056583911     
   5.12715559453320     
  -9.64526407414764     
  -10.4808820601654     
 -0.317022905418216     
  -9.69410403346650     
   8.94128745486782     
 -0.313304574725374     
   9.43337939881051     
  -9.56922417461643     
 -0.317959050458352     
  -8.89932446552379     
   8.88911182663646     
 -0.311330431785085     
   9.00678871629328     
  -9.35804251194312     
 -0.307199239100953     
   5.83886178730593     
  -6.43942500097175     
   8.71462103240919     
  -6.35922358779862     
  -7.08566965973671     
 -0.302251847558593     
  -5.88339460592572     
   8.85518013990398     
 -0.311643318305207     
   5.52443748402150     
  -7.83022136399395     
   6.56422373866415     
   5.26771296653492     
   6.34495236073093     
 -0.307265161135563     
   5.54331177372409     
  -7.31947961044560     
 -0.314253160540310     
   5.93435069168177     
  -6.83915806880612     
   6.43433396665735     
   6.48817260743458     
   8.89212911602761     
 -0.306930154553476     
   9.34249327736705     
  -6.47282604643390     
 -0.311884734498867     
   7.75021182452415     
  -9.49262868013307     
 -0.301273402934012     
  -5.91783440463743     
  -6.11191635618270     
  -9.08486205536094     
   7.26196871205407     
  -8.17528135831801     
   5.88052434686259     
   8.57776229885862     
  -5.67344135808095     
  -7.31874275955064     
  -7.30971707132155     
  -9.41087738829940     
 -0.286657451021263     
 -0.285775366405004     
 -0.281264274900244     
 -0.291959595211032     
  -7.37303030007668     
  -6.67827655195412     
 -0.290999812954060     
  -7.85310905727625     
  -6.82112331404412     
 -0.287391010988084     
  -8.79963777916464     
  -6.52855684182861     
 -0.292891288664982     
  -8.32648633344359     
  -8.96680896138587     
 -0.296649092778102     
   9.02348528455356     
  -9.59040896080604     
   8.20777988732316     
   6.17636033077210     
   6.05432732519772     
 -0.300729616995102     
   8.12520454826888     
   5.66727326194227     
 -0.288016733862197     
  -9.46008330270942     
  -8.40516794784014     
 -0.283100114839499     
  -7.92512597868933     
   7.97273185030405     
 -0.281167855522958     
  -8.47746078239505     
   7.84385778072056     
 -0.276399990237590     
   9.56119590765009     
   8.32331204008540     
   8.64331238501704     
   7.40065958058691     
   6.30525703592138     
   4.78426155176369     
  -10.1122196427254     
  -7.44533239581695     
  -6.23862782286338     
  -8.45310669476325     
  -7.33661996313627     
 -0.289928788981456     
  -7.99739611551586     
   7.07532043954337     
 -0.283969846739190     
 -0.278680327784442     
 -0.283434181517858     
 -0.289469314713917     
  -8.02358504833978     
  -9.10769915596614     
 -0.288148113331129     
  -7.66163329165992     
   7.71497487379820     
 -0.284325910217066     
  -7.52554376005477     
   8.05845975743014     
 -0.289713965016042     
   8.32992258518838     
   7.14290262740343     
 -0.285450463169115     
  -7.81822497121889     
   5.44484087945879     
 -0.295410139073553     
   7.47884181400559     
   7.27178534261529     
  -9.21452382673649     
   5.19581559008921     
  -8.51423073197416     
 -0.296747083141928     
   7.58567919838498     
   4.74036409482395     
 -0.280234939347520     
  -8.58851423615116     
   7.90452116574081     
   5.91490610530163     
  -8.29292242474467     
   9.07493696648622     
 -0.273593193221302     
   7.53244009526269     
   8.48354403405880     
 -0.278000696158759     
   7.72645835601664     
   7.54360466661479     
   6.69968870854247     
   5.47970437184586     
   6.57085586805121     
  -9.02298396022371     
  -6.96521080998974     
  -6.89309701453315     
 -0.287855285174210     
  -9.90199599403928     
  -6.02608799437177     
 -0.294606806746816     
   7.05318181908802     
 -0.291892591251401     
  -8.08219163470853     
  -6.62131986320403     
  -6.22650792199831     
 -0.295447191877402     
  -5.71500991411596     
  -8.68564620352607     
 -0.296394972065841     
 -0.293669802508251     
   7.04322806891992     
  -8.54973647278038     
  -8.00878609264572     
   8.15401984025850     
 -0.296898267247899     
   5.56860672974314     
   8.18499528668881     
 -0.305961657947316     
 -0.298375606967290     
  -8.07056701417998     
   8.98676619508191     
   8.08341454792643     
   4.76207159562758     
 -0.303458133113501     
  -6.27886076014842     
   6.02461861891475     
  -10.4447189051459     
  -6.21817607881254     
   5.38399394237690     
   7.01380691666668     
   6.58273053899770     
  -7.52418168912686     
  -8.82688018823491     
   7.11998803740789     
 -0.299474877279401     
 -0.303896303458474     
  -5.86039099162597     
  -6.90650765083831     
 -0.306410670398710     
   5.97974247995661     
  -9.25606630365624     
  -8.89119833526511     
  -9.82926412115246     
   6.80183079528395     
  -8.87164095636284     
  -5.29218279480411     
  -9.61427614393224     
 -0.300216037655697     
  -9.62827402907327     
  -7.50397985498567     
 -0.306978140499550     
  -9.76457408453320     
  -1.58291747781332     
   6.27173926519479     
   6.34429858152907     
   4.83361496527838     
   6.62833456088025     
   4.31035450169521     
  -1.00963616133023     
   5.39697055641533     
  -1.40770760886314     
  -6.96455559217959     
  -8.39356238151610     
  -7.01744999796643     
   9.46954255382996     
 -0.272819332440585     
 -0.268110047929136     
   6.12760791647438     
   7.45269621570842     
   9.41252168985805     
   5.67528291270118     
 -0.268331430684846     
  -10.5652627552108     
   6.95746236825018     
 -0.274392225240233     
  -7.51784534282807     
  -9.92241768439214     
 -0.268496125304194     
  -5.37517035917636     
  -8.10763212198801     
 -0.263906076142029     
  -7.91120084328493     
   5.32939335744926     
 -0.260085604915978     
   8.32622085531834     
  -10.4326645201395     
 -0.255453782208429     
   8.45488188612788     
   6.94301142912865     
 -0.274851115795550     
   5.04337667156903     
   7.86163291471585     
 -0.262111786759842     
  -8.76378642536324     
   9.11214984651635     
  -10.0514445989123     
   7.18993233237092     
   6.00114011532250     
   8.54561361861931     
   4.78346083308475     
   7.03862974964536     
  -9.59928014640345     
  -10.0032270588863     
  -9.23297116996861     
  -7.19639866935472     
  -9.49297475378315     
  -6.29579216942291     
 -0.275999838773662     
   5.48034910430890     
 -0.271125548311920     
  -6.26662630523117     
   1.25468557019064     
   1.05733749558266     
 -0.271685751876863     
  0.707345299351268     
   9.61118157698255     
 -0.277946312333144     
  0.699646111760782     
  0.939670625595495     
 -0.272206262484774     
  -3.33271269112400     
   4.96159477836189     
 -0.267417361406528     
   9.30065729589661     
  -5.63645502536973     
 -0.264099711922618     
   8.91983556085376     
   9.04877317270219     
 -0.274630546956805     
  -9.99169480588558     
   1.02158482529970     
 -0.258864451148064     
   1.47347336219063     
  -10.0016763642054     
 -0.265327286435664     
  -10.0328480698953     
  -5.27694427297629     
  -3.65842926696784     
  -3.84963403803246     
  -9.83077521410837     
  -8.12211584705931     
   3.99213696947012     
  -3.52403083290270     
  -6.90148194727477     
  -5.79979073105733     
   9.08480040031258     
  -2.02980814184201     
  -9.95885376987862     
  -5.41488894727227     
 -0.300148139246805     
   6.37856145359304     
   6.29605450153930     
 -0.307638657157370     
  -9.64094201002950     
   4.69287885731664     
 -0.302329180685486     
   9.13551277916506     
   2.05488300728133     
  -7.06303426356480     
  0.297991544195406     
  -5.27820100195213     
   5.00930526079616     
  -9.44186409889821     
  -10.0489414603791     
   4.96799114262289     
   8.19179454279548     
   6.00600781156699     
  -9.91877714831638     
   8.13522302498802     
  -9.06025818235542     
 -0.299149385125161     
   6.60311566809337     
   7.58648782569870     
  -9.54947282856681     
   1.07294172791145     
  -8.40032526761033     
  -9.97911828887338     
  0.330361904439314     
   1.36444633971746     
 -0.306130117633116     
  -10.4206101351330     
  -1.44818576670700     
 -0.295023451909007     
   3.73941036648663     
  -3.93807035884421     
  -5.59054296389784     
   5.07391188212307     
  -4.02261336266150     
   9.84473528300296     
  -4.37769035471606     
   7.54579724912401     
  8.896927128455842E-002
  -10.0634989839188     
  -4.41885201538207     
 -0.253878269169049     
 -0.247957266734822     
   2.85731264716379     
 -0.247658421064960     
  -9.79378788637385     
   7.03888098031705     
 -0.253528729407433     
   9.55392324887535     
   7.58173987555172     
 -0.248750753253695     
 -0.814770026602936     
  -9.88401259725353     
 -0.241864598351546     
   7.81814691832112     
  -8.36388580838399     
 -0.239393433951648     
   7.42851394931908     
   9.22074246688212     
 -0.240938884136878     
  -6.45216042260014     
  -5.65504116981407     
 -0.229533947488961     
  -6.84179339160218     
   9.89898001508308     
 -0.250363847689555     
   9.91103440008956     
   9.45254918068016     
 -0.255448181878317     
   1.12553257120748     
  -7.62105932960625     
   5.63234078970215     
  -10.4567732901524     
  -8.01069229860829     
   5.90642153253727     
  -1.14488867511006     
  -10.4688276751589     
   5.27791516260410     
  -1.25775993219896     
  -3.38841809527024     
  -7.23142636060421     
  -1.38508248468281     
  -5.99458777479116     
   5.22612872926839     
   1.54152477098374     
  -5.29579122134164     
  -2.45242544593474     
   4.94955753631932     
   6.39397041682675     
 -0.261364775063169     
  -6.72838830056236     
   3.11983705194701     
 -0.257672094873976     
  -10.1429241649264     
 -0.251561420863527     
 -0.251610586278072     
   4.13387082736982     
   9.14205034929502     
 -0.257600454925342     
   4.06165251718102     
   6.93941355839909     
   3.13681342247882     
  -10.5411539851978     
  -9.14315174638807     
 -0.253082778449380     
  -8.75351877738603     
  -5.94282494909724     
 -0.245964335705680     
  -5.68635789998493     
  -7.97425283938195     
 -0.243192028195099     
  -4.32171897465900     
  -9.99117267387986     
 -0.245441413819236     
   6.00857184848506     
   9.31715832122134     
 -0.233528694382535     
  -8.52613208843192     
   8.96807374297471     
 -0.255228328309703     
   5.92360235576887     
  -8.85495731477167     
 -0.259851811128045     
   4.84760036830293     
   5.59581804656958     
   3.35718344933977     
  -8.78995823661236     
   9.11707345656427     
   8.73366976820077     
   9.29531416271314     
   9.08826094815631     
  -9.53278471539011     
   9.48077549703265     
   8.59741285632520     
   3.66640409829405     
  -9.79422263495334     
  -10.5532083702043     
   1.04172363389202     
   9.38091716513983     
  -9.77406649017452     
 -0.266117055027288     
   9.60531385108258     
   8.91684772666540     
   6.68568747054134     
  -8.23212989862073     
   4.55393047217779     
  -9.46671063031228     
  -6.47862292818208     
   5.55604554994605     
 -0.322917737727946     
   5.09363669177262     
  0.570045799066071     
 -0.303249423021694     
  -6.41572096337381     
   5.86998207331094     
   6.25961504231298     
   6.82857350173117     
   5.51262636891430     
   9.27180527182511     
   9.50570570884941     
  -3.47200678623697     
  -1.43323496076936     
   3.35167255457923     
  0.449933578734670     
  -5.64475218732259     
   3.76809251078016     
  -3.53552189271215     
  -5.47586872704855     
 -0.675263698170390     
   2.32957199789104     
 -0.324500113802506     
   5.13502671598017     
  -8.91989882573545     
  -4.26224483767172     
  -2.07255109902360     
  -6.53791286101117     
 -0.246378648744372     
   9.21530126607001     
  -8.84509426239211     
 -0.241240089234059     
   5.08553928418954     
  -7.58461987037992     
 -0.313476592011041     
   4.95383017381423     
  2.565725290255610E-002
 -0.255752897580911     
  -3.34011456724079     
   8.90781540736064     
 -0.249837978350456     
  -7.19498690137788     
  -9.17959120561440     
   2.23095109270329     
   3.39109093152965     
  -5.73511160916360     
   5.24208443151716     
   3.10440489600050     
  -10.0273358288993     
   9.34856313444396     
  -3.86127015051878     
  -6.19906553485968     
  -3.11875698014919     
   1.57527774282513     
  -5.20336905882887     
 -0.501111219359336     
  -8.67610090239126     
  -9.77712098409532     
 -0.321985465919479     
   8.25964246086783     
  -8.08937048758375     
  -5.79611582403980     
   7.10636271342183     
   7.92660577658916     
 -0.308835398182533     
  -5.83750822994273     
  -4.59123776615675     
   2.49655764144492     
  -4.42127468407126     
   5.08321284358455     
 -0.325034100048498     
 -0.990985386545668     
   3.02371483617925     
   5.04718779911809     
  8.154812357882643E-002
  -7.54325983871780     
   2.98690533908564     
  -6.82663256830340     
  -5.08911214161053     
 -0.232767247760059     
  -4.84373659391832     
  -1.05828248074787     
 -0.228049910607889     
  -10.5170452151849     
  0.267056960554582     
  -5.30022105867231     
   4.81824068549408     
   3.97469073401826     
 -0.317379290891075     
   2.23316582196744     
  -10.5049908301784     
 -0.333965719788571     
  -6.90144992478068     
   3.41204401479455     
  0.335488001134170     
  -5.27159332899459     
   5.21406437538201     
 -0.293228343343678     
   3.09390395084884     
  -3.14328343356168     
   2.07052229033821     
  -3.44717550488416     
   10.0195238651479     
   2.59017845982174     
   2.39611659571065     
  -5.92965466898814     
   4.24704259823500     
  -5.67289448459607     
   4.34305256514555     
 -0.339786370605721     
   4.00359560196121     
   3.21306197784204     
 -0.224267323496558     
   1.19787791463572     
  0.507293482751840     
 -0.229841040944166     
  -10.0498573856147     
   1.67894496059740     
   1.02559036311189     
   1.29027064282717     
   2.80368096124761     
   8.88663606863302     
   6.64924801131501     
  0.868663572557399     
   3.92262055321861     
  -3.64850397731463     
   4.53666941048660     
 -0.222327299809908     
   1.43986856288719     
   1.43947066012417     
 -0.218134150128629     
  -10.4929364451719     
   1.51776969597550     
 -0.337595607891877     
  -10.0996621389382     
  -7.56017020271910     
 -0.331894339270226     
   2.38997553497976     
  -7.57762354968939     
 -0.319427449693043     
  -8.58948252416959     
  -3.49511443651950     
   8.24421934654949     
   6.83815761665470     
  -2.32336351716699     
 -0.340902955270886     
   4.36651007168320     
  -8.16825850610253     
  -9.08004512309587     
  -7.86421925451431     
   3.40034898158085     
 -0.354672430308681     
  -7.21386205490137     
  -10.2699303247972     
  -8.88154313165458     
  -9.04162149329681     
  -7.27368204412294     
   4.35147886526060     
   2.37513461658289     
  -9.50896195374525     
 -0.328171050741393     
  -9.59029779747800     
   3.06053862406035     
  -7.27977972573515     
  -10.0755533689253     
  -8.51061100842401     
 -0.216419258651471     
 -0.205066544149004     
  -9.85449923101780     
  -9.15689238269282     
  -8.45937242984144     
   9.54186886386886     
 -0.204424273561415     
  -8.67941003240033     
  -8.58312380492072     
 -0.190390122719116     
  -8.94233787936838     
  -9.17184094149861     
  -9.04256101992412     
  -6.40154331994430     
  -9.23324699054155     
 -0.221212993349603     
  -5.44086925221228     
 -0.209456175440211     
  -9.35598308510169     
  -9.19531601249131     
  -9.30702449223683     
 -0.209613542092087     
  -9.00315590846707     
  -8.56203419703208     
 -0.194970316470160     
  -8.98007945564663     
  -8.47218737858153     
  -5.56131885739125     
  -8.96455791577733     
  -9.38115607311046     
 -0.312440085482031     
  -6.34670178933362     
 -0.894053756588926     
 -0.303987034036565     
  -1.05054970705250     
  -1.96583975896607     
  -1.77847443416552     
  -9.18052573479882     
 -0.571248421486687     
 -0.327643737319069     
  -4.70224978227367     
  -9.54246533776026     
 -0.317246851431726     
  -5.91598516793193     
  -8.53336983291944     
 -0.316548857124979     
  -8.77963317295607     
  -4.75224386346577     
  -5.97497466278414     
   4.85339888946010     
  -9.50224253536625     
   1.25787175627730     
   5.84687236442575     
  -8.77611625086085     
  -10.2473283532469     
  -9.11846875289437     
  -4.80066986382013     
   9.49365132384293     
  -9.93387454212190     
  -9.09923106214988     
  -4.39341304628919     
  -8.75347047174943     
 -0.663162541454494     
 -0.277987386106182     
   4.67642195417402     
  -3.16618804128256     
  -9.58744529498259     
   7.85458637754745     
  -9.20980313216547     
  -9.48425267515297     
  -3.79916790909865     
  -3.38658703308174     
 -0.285875566078384     
  -8.92582751522746     
   9.16066358833615     
  -7.89059876510631     
   1.49198300299459     
   9.38933336558709     
  4.551148353761922E-002
   5.47176968301507     
  -8.71715160825230     
 -0.189012785536681     
  -8.02971685604206     
  -9.54659663763877     
 -0.174281941189357     
  -9.48748525693542     
   1.70706621021207     
 -0.195381274010325     
  -7.92157372513290     
  -9.14278416047985     
 -0.194330835113612     
  -3.98886413172002     
  -4.69718050476995     
 -0.179041700505409     
  -3.18169637927227     
  -5.07430395747721     
 -0.201536662006828     
  -8.86068335031793     
 -0.334490004894686     
  -9.50162669774069     
  -7.54376629346898     
  -10.1945904196294     
  -8.47640596893181     
  -8.81453988065923     
  -9.72366011755518     
 -0.324043385859517     
  -7.30274488904723     
  -3.97633458867791     
  -9.87198458230538     
  -8.61692846743136     
  -3.92138712126702     
  -8.51669707544921     
  -7.15951937806818     
  -8.87985631351180     
  -4.64875450441309     
  -8.85296351045766     
  -8.83170125181087     
  -4.28691006758946     
  -3.32759488733119     
  -4.91706618377959     
 -0.170533301282430     
  -4.84909586447952     
 -0.161991062607494     
 -0.159835857558342     
  -8.69928732466866     
  -8.65467003412683     
 -0.170453638177211     
  -8.35400062079138     
  -8.58334908776522     
 -0.159387788346415     
  -7.89172665579113     
  -9.24300730103557     
 -0.169547667058477     
  -7.90215654645754     
  0.640554043500590     
 -0.149574910644116     
  0.884882357272413     
  -8.97127783291629     
 -0.144108026668822     
   3.21023241630797     
  -6.46026658636545     
 -0.146268108053074     
  -5.06797477926585     
   2.26759335301920     
 -0.184223581768241     
  -8.73769262106215     
  -8.22166548107854     
 -0.184357149441092     
  -3.89876120363697     
   9.48159693883644     
  -8.87111324098784     
  -8.25376327547811     
  -8.87811187760686     
  -3.61917564028561     
  -8.55444689812511     
   4.55981590380336     
   9.02053654653231     
   3.54221286041657     
   3.74509267290133     
  -8.66074962050399     
   9.12918401572087     
  -3.74042129519173     
 -0.196895352706439     
  -8.91759788446900     
  -4.45432587003453     
 -0.138388339115086     
   2.64268926031535     
  -4.54818189316519     
 -0.125665062577952     
   4.45666357975893     
   1.71129964643576     
   3.77849137779497     
  -9.24367688121148     
  -6.42096637637572     
 -0.128886726366743     
  -7.55135793942055     
  -8.19737114861083     
 -0.117486453827070     
  -7.21780415308268     
   2.45725802469294     
 -0.121694206399859     
  -8.62207950844768     
  -8.43376374878381     
   2.08216211737925     
  -8.19129591126644     
  -4.50275187038785     
 -0.107834089049628     
 -0.165283737932245     
  -8.39536435784352     
 -0.106781949476586     
   3.44749483747681     
  -8.21123559040871     
 -0.106570882776558     
  -8.24252526240917     
   3.70873339136815     
  -3.62239769246083     
 -0.374455997928494     
   4.15359285564309     
 -0.100666422020064     
  -8.26100821609658     
  -8.35688694212315     
 -8.759625708273816E-002
   4.09582287022777     
   3.69689066700764     
 -9.734732589210615E-002
  -4.93246705778124     
   3.58811275562716     
  -2.79536637329591     
  -2.15175475698068     
  -4.10213241119590     
  -2.91560552903433     
   2.72574564367243     
   3.96321423413592     
   1.89673088185189     
  -7.87467006740232     
  -8.45422376049437     
 -8.171768625480690E-002
  -2.74096581701593     
  -4.19959527441148     
 -0.165076549563808     
 -0.157068350669054     
  -8.86511205150296     
 -0.154231876563478     
 -0.938140860840324     
  -10.0876077539317     
 -0.164274227016298     
  -1.91329473220795     
  -1.63936761991756     
 -0.153029259309600     
  -1.98516587166699     
   1.73364165148519     
 -0.162364205886196     
 -0.993498242884056     
  -4.15317914452553     
 -0.143643605094375     
  -2.62758043440419     
 -0.700322324449769     
 -0.139041397798742     
  -2.29908730770404     
 -0.358702957930523     
 -0.139429613602654     
  -1.28669102446323     
 -0.644237272754127     
 -0.178486510487178     
  -3.21870839211884     
  -1.53972099172917     
 -0.177739017830677     
  -3.79436123265328     
  -1.69197929292316     
   1.88443074860907     
  -1.74818175805781     
  -1.34274652823722     
  -1.04956893355809     
   1.89249744581557     
  -2.09711896803888     
  -9.59670253292054     
  -1.45488272045576     
  -1.63594169715706     
 -0.364900259821808     
  -2.68503718515573     
  -2.60143372214266     
 -0.189157361597703     
  -4.03373047187390     
  -2.04139197499595     
 -0.132589552140461     
  -1.90906571036411     
 -0.923417136649505     
 -0.120474375717151     
   4.57785617061332     
  -8.15352797354867     
  -2.33438976698285     
  -1.24501550412614     
  -1.39880743552559     
 -0.122919124877369     
  -8.18662751207774     
  -1.28878182225706     
 -0.111725268895825     
  -7.86550242636131     
  -8.29151904778582     
 -0.115130771143807     
  -7.97585307425301     
  -7.58264761183603     
  -8.82598525726256     
  -4.19906164393902     
  -7.81554445827778     
 -0.101722303760954     
  -8.27960108102583     
  -7.99084002000945     
 -0.101485646546672     
  -8.31833150163052     
 -1.841558804844878E-003
 -9.935926261910116E-002
  -2.44646502909929     
   4.22403427893549     
  -4.92510500114290     
  -6.86314556980390     
  -8.05304850186829     
 -9.488222297354859E-002
   4.14371751353026     
 -0.351081957458134     
 -8.221292665080077E-002
  -5.12065101238669     
  -7.88129676511697     
 -9.100287228558299E-002
  -7.90152050435512     
  -1.85698895864477     
  -4.94594786258616     
  -8.02053248591273     
   2.08346811339472     
  -9.16894147778693     
  -7.53836151450802     
  -8.54117441569907     
  -7.70631985063395     
 -0.209386156930317     
 -0.885010969222052     
 -7.477485147862338E-002
  -7.97849141675103     
   1.73465432351694     
  0.706296136358441     
  0.708122036262068     
  0.690313156441645     
  0.684498841863635     
   3.77682513388777     
 -0.583631519305825     
  0.731101474392336     
  -7.52184270754169     
  -7.74909213961361     
  0.703442483802650     
  0.688026985704086     
  0.705989076698869     
  0.681258382992529     
   3.70578002989172     
  -7.14112064552269     
  0.729313654188150     
  -7.48349718968372     
   3.59057714115596     
  -7.65617884280478     
  -1.06008137417118     
   4.42119397321676     
  -8.51946118223611     
  -5.16482678040563     
  -4.80500037305524     
   4.93485019466255     
  0.669102877802689     
   3.48247619281640     
  -7.91258643712259     
  -7.79034900784218     
  0.671542976647324     
   1.00827284496852     
 -0.688763674330229     
 -0.510257710636397     
  -6.78819066283460     
  -3.61921039942963     
  -8.20557384138054     
  -2.39131030863087     
  -7.24844195260704     
 -6.819165424339083E-002
  -8.12983487633351     
 -6.273861629778960E-002
   2.08639555663556     
   4.87859213880638     
  -8.40042525745524     
  0.777330271034237     
  -7.62768009908900     
  -1.77589040231721     
  -4.64419481305994     
 -0.300172062708423     
  -9.91713801466980     
  -9.66928778903463     
 -0.361057684205013     
  -9.20105206627662     
  -7.82590600377251     
  -3.03435405047095     
  -9.99039391553166     
  -9.51290316802470     
 -0.343926526506891     
  -9.55852761787658     
  -6.53827372973283     
  -1.09776428178925     
  -1.56381374093570     
   3.53939072829675     
   4.30325944440655     
  0.672347887475913     
 -8.497939388013304E-002
 -0.120366589340689     
   2.64692269605822     
   2.43628522624667     
 -0.131779661568120     
  -7.87691364129032     
  -3.09074446776145     
 -5.874763128397004E-002
  -9.01782102047870     
 -4.856211581514251E-002
 -5.218503580484055E-002
 -4.305478192797420E-002
   9.18558239851183     
 -0.311006515936418     
   3.39705182364713     
  -9.54804701018486     
 -3.984293311480883E-002
   6.72187163119691     
 -2.879341730821171E-002
 -3.315080874294973E-002
 -2.324691117559779E-002
   4.34296409216751     
  -4.77755217576911     
  -8.55160430636654     
   5.51678856353523     
  -2.97769625442121     
  -9.32280977103796     
  -7.17948418241618     
 -1.980017663130875E-002
  -5.59945299055099     
 -8.895587163324373E-003
 -1.307487341162021E-002
 -3.323256916437849E-003
  -7.53363370389723     
  0.661257416203162     
  0.649208855086669     
  -3.84965011414245     
  0.664849426143487     
 -0.631232693582985     
  0.651807100102534     
  0.695952266477424     
   3.83441573993776     
  -1.66632845743403     
  0.700307818518587     
  -7.71063303757480     
  -7.93888829289198     
  3.432930976552291E-004
  -7.63337453287243     
  1.110985676602389E-002
  7.088503714551443E-003
  1.669541947163942E-002
  -6.11741167418527     
  2.057590740873782E-002
  -4.39853983376495     
  3.122228399734824E-002
  2.732871203433205E-002
  3.680917719347375E-002
   4.74027348820658     
  4.088200703135056E-002
   2.46149146253176     
  5.139839352931026E-002
  4.763101332922423E-002
  5.697593511155711E-002
  -7.78748237430307     
  -4.55117787101308     
  -8.81737474845127     
  -7.52096017104233     
  -1.29045219323781     
   9.73925941576794     
   4.66459806892665     
 -0.159449080076415     
  -1.20108431048846     
  -2.25705618844781     
 -0.168172918077370     
  -4.89752186418425     
  0.259422237432946     
  6.124965637890036E-002
  -7.62439153760581     
  7.165915577645592E-002
  6.798437171844700E-002
  7.721734153264133E-002
  -7.26452086499831     
  -2.20447575752849     
  -7.59975455705042     
   9.97130632512198     
  -6.77589287822558     
   4.52702808818264     
   2.73282890105167     
 -7.794010255239439E-002
  -8.01452911104025     
   2.83328083914336     
 -9.507840105339729E-002
  -3.89359565618612     
  -7.10273912110575     
  8.167354594080259E-002
  -4.64802984965219     
  9.197088293001170E-002
  8.838421704492638E-002
  9.750034974115211E-002
  -4.59960387045060     
  0.102149785629097     
  -6.79876216359684     
  0.112346341474722     
  0.108827230969120     
  0.117838325798748     
  -6.48542662741799     
  0.122669703988418     
  -6.53307303871587     
  0.132770785922815     
  0.129305241765212     
  0.138216634723168     
  -6.08133020524356     
   2.84506083507902     
  -3.54373878035297     
  -8.13346652669984     
  0.674376085694518     
   3.09721297952666     
  -8.09141124674673     
  -9.91067396459990     
  -4.69645572974986     
  -3.24835993783311     
  0.655391245063294     
   3.05194099298585     
  -2.95298133752706     
  0.675079345258761     
  -3.30233242705053     
  -2.90044343948494     
  0.641747442391364     
  -7.23184900513610     
  -3.65259468369616     
   3.84336363864922     
  -7.52743494242752     
 -0.989354142753357     
  0.678692473687116     
   3.96786044602468     
   3.27376116064913     
  -4.30168574198294     
  -3.68097995913116     
  -6.99377905984338     
  0.660380095705651     
  -7.17123730026272     
   3.64594520172793     
  0.680293266815049     
  -6.86989600131385     
  -7.20206542931133     
  0.645625040813419     
  -7.53836951822777     
   3.37321634341028     
  -6.87233463659841     
   4.50307057862657     
  0.631599431285957     
   2.75688626701817     
  0.628842904820765     
   2.75210215414936     
  0.149816312020103     
  0.158623792401566     
  -2.01426881762933     
  0.143230887132234     
  -3.59956931250381     
  0.153231635723084     
  0.170349655261293     
  0.179069485633046     
   2.88975105305736     
  0.163822026467318     
  -6.90769270157265     
  0.173738961753205     
  0.184447688463742     
  -4.14823370565860     
  0.194287038723439     
  0.190910468781077     
  0.199549676257122     
  -5.87054744945103     