 TITLE="euler solver on unstructured grid" 
 VARIABLES= "X" "Y"  "P" "Rou" "U"  "V"  "nuT"
 ZONE NODES=       11173  ELEMENTS=       18178  ZONETYPE=FEQUADRILATERAL
 DATAPACKING=BLOCK
 VARLOCATION=([3-7]=CELLCENTERED)
 -0.306990591681965     
 -0.302194828952385     
 -0.302324771528938     
 -0.306788250976586     
  -7.84142711139485     
  -8.55670802554522     
 -0.301282971101915     
   8.81448544962328     
   8.95600823152812     
 -0.312117013318365     
   8.23396572243998     
  -9.36328419612043     
 -0.310053723340224     
   8.36300208135284     
   8.94149088577645     
   5.85446808031852     
  -9.23282040567022     
  -9.97470443682244     
 -0.317595676213736     
  -9.18418621890803     
   9.45201106366313     
 -0.314555315602275     
   10.1111547601052     
  -10.2947351307468     
 -0.317794565248114     
  -9.54464612841514     
   9.35040185550204     
 -0.311234779682154     
   9.55688323159950     
  -8.76270845836920     
 -0.306900537343899     
   6.47763072565082     
  -6.85750845039665     
   8.02253059490489     
  -6.87607339539798     
  -7.53809996056710     
 -0.301699153355434     
  -6.35591061713868     
   8.22690353554871     
 -0.311229260605581     
   6.11702347796365     
  -8.47258363045280     
   7.25896281984941     
   5.92544159629491     
   5.82553285187586     
 -0.306557167722570     
   4.96691632803619     
  -7.99922580587541     
 -0.313423081790636     
   5.38607395838154     
  -6.18146144684028     
   7.08099736641440     
   5.91399027360851     
   8.30833190794633     
 -0.305773048130374     
   8.80003715732652     
  -5.77471738475447     
 -0.310445989906248     
   7.14835559606768     
  -8.84324007618114     
 -0.300286879538851     
  -6.55674597908608     
  -5.46556074241129     
  -9.46304601503837     
   6.69203704757780     
  -8.85839505501127     
   6.57193020703354     
   9.26571081876452     
  -6.20024594219777     
  -6.68162474560702     
  -6.61827353893521     
  -9.83739718344373     
 -0.283371519760639     
 -0.282898348793629     
 -0.278102780834635     
 -0.288904230943168     
  -7.94520081970166     
  -7.32507965313219     
 -0.287518591825328     
  -8.45029981195221     
  -7.41195360409783     
 -0.283659574987274     
  -9.40254139006506     
  -7.00293833822478     
 -0.289025269907688     
  -8.95239405132149     
  -9.53177352528026     
 -0.293161971129090     
   9.74921757107916     
  -10.1306798626598     
   7.47505927213062     
   6.73727235800988     
   5.57351381927561     
 -0.296718059906186     
   8.60436221295565     
   6.20996768258482     
 -0.283528449606524     
  -10.0601729522949     
  -8.98372450559213     
 -0.279606204512802     
  -8.47865716302310     
   8.56683703893012     
 -0.277318578763642     
  -9.01238363454972     
   8.39557156057218     
 -0.272977646919525     
   8.95643514411388     
   8.88784771669708     
   9.23861721265029     
   7.98305685531517     
   6.90856256990387     
   5.27362625200864     
  -9.50036863707230     
  -7.97386529044658     
  -5.82723787796292     
  -7.79492498888855     
  -7.95727991986363     
 -0.287365781373838     
  -8.50727036314903     
   7.80184282569884     
 -0.287024353837787     
 -0.281614730172231     
 -0.286080349951208     
 -0.292288874107415     
  -7.49852545852080     
  -8.61576279376998     
 -0.291394454663438     
  -7.10515025273770     
   8.22429709711897     
 -0.287825480147103     
  -7.01325054640977     
   7.54060796578479     
 -0.293343701819852     
   7.73819278710891     
   7.64051744424067     
 -0.289510846551981     
  -7.21626147748848     
   5.94744851101907     
 -0.298595115119328     
   6.95110716082763     
   7.81179122218948     
  -8.76590866316156     
   5.65794019734250     
  -8.00160701680109     
 -0.300647450099295     
   7.10459015306383     
   5.36853681002588     
 -0.283500382961587     
  -8.12200575166902     
   7.34478810437288     
   6.38556858424361     
  -7.72735265590236     
   9.47559089636618     
 -0.276792480768810     
   8.16075988556789     
   8.88819362867593     
 -0.281623195976255     
   8.41520205384229     
   6.90450631669454     
   7.22798530252895     
   5.00577267108359     
   7.05676104852587     
  -9.53990439831715     
  -7.46872802993152     
  -7.44027253201302     
 -0.290183966110603     
  -9.43655428042432     
  -5.29425218826584     
 -0.296870916606951     
   6.55745230478118     
 -0.293870196894625     
  -7.64058629134205     
  -6.04404826142863     
  -5.62413359981184     
 -0.297038721721852     
  -5.10933516927126     
  -9.13451567578245     
 -0.293975807561057     
 -0.291454715610936     
   7.70745555519146     
  -9.04102744866388     
  -7.52110308088788     
   7.68968774448591     
 -0.295066505202770     
   5.05006757760461     
   8.82440457396721     
 -0.307027513130315     
 -0.299551041572174     
  -8.53682076017965     
   9.62545688348992     
   8.52168278666655     
   5.44152363019447     
 -0.304907993868581     
  -6.84296141392411     
   5.40402275483331     
  -10.0238552756842     
  -6.91242820769800     
   4.76093224690581     
   7.46902645636578     
   6.96474949030032     
  -7.10725845287498     
  -8.23665881176967     
   6.66346602917733     
 -0.298056977850494     
 -0.302149780100943     
  -5.34369062347147     
  -6.46962126663621     
 -0.304951579021552     
   6.35735174208932     
  -9.59806744920006     
  -8.25316572538874     
  -10.1653124025393     
   6.37932613683153     
  -8.17899316554998     
  -5.92278962927954     
  -9.98828949161680     
 -0.298137279474402     
  -10.1154530513031     
  -7.04127601126368     
 -0.304610981673744     
  -9.06510590074793     
  -1.97424117090933     
   6.67711448047809     
   5.95782796693119     
   5.25847362013604     
   6.16463036423700     
   4.77206807026960     
  -1.41100684026522     
   4.72306248096042     
  -1.83056142314585     
  -6.47189041180967     
  -7.77756617612105     
  -6.62742312860907     
   10.0620039212435     
 -0.276459674603488     
 -0.271557697274944     
   6.64419168099696     
   7.87672322355450     
   8.96935645782430     
   6.10010282982060     
 -0.272178584628641     
  -9.86001914614509     
   7.57054281166119     
 -0.278472518650922     
  -8.00272315984388     
  -9.18900167902649     
 -0.272762850405224     
  -6.05835826839542     
  -7.71177377127664     
 -0.267940143223571     
  -7.25945748863570     
   5.71449489342046     
 -0.264714233247614     
   7.91064874057715     
  -10.0402388886381     
 -0.259372613547969     
   8.07778893631537     
   6.55642146693023     
 -0.279571498708696     
   4.64902240008501     
   8.25149663884676     
 -0.265797741510116     
  -8.35018196556310     
   8.71199970776724     
  -10.5583706420494     
   7.57334920050757     
   5.30490932928494     
   7.99435867854290     
   5.36167128563585     
   6.38366282297334     
  -9.44091949326676     
  -10.6239050938651     
  -8.85102914012433     
  -6.60509782118153     
  -9.36664329666549     
  -5.82118282448119     
 -0.272136916973749     
   4.74873462859815     
 -0.267459206053093     
  -6.87274328839054     
   1.95558709632084     
  0.353353161540158     
 -0.267619588039140     
 -2.233343229280732E-002
   9.86949646995056     
 -0.273642011967801     
 -4.578754593113132E-003
   1.62040638196759     
 -0.267720249597317     
  -4.04153281081717     
   4.49421342169167     
 -0.263167810274743     
   9.37510872572222     
  -4.90477723918977     
 -0.259258494483920     
   9.02283159951378     
   8.89010731135934     
 -0.269694704369146     
  -9.95591239050398     
   1.42109306272784     
 -0.254737032405436     
   1.85635213603437     
  -9.86434979659858     
 -0.261427422981733     
  -9.86015684889549     
  -4.56911820149318     
  -3.32020034363296     
  -4.54448967818083     
  -9.76033445965839     
  -8.54471843616961     
   3.29351768762903     
  -4.19778746844045     
  -7.26868571660278     
  -5.10745878820942     
   9.33746262506162     
  -2.43395252515915     
  -10.0296702400489     
  -5.16127069036512     
 -0.302084418714128     
   6.82078894894648     
   7.02289292754671     
 -0.309484885802339     
  -9.44999801372977     
   5.15229770929882     
 -0.304920187931882     
   8.76299926543581     
   1.34725633888067     
  -6.52086866694113     
  0.974785642263321     
  -5.06640353540628     
   5.55012259427874     
  -9.56978579394092     
  -9.83951005578562     
   4.26580771508183     
   7.50280997643825     
   5.56991708054314     
  -10.0592844384003     
   7.48715110976444     
  -9.53710433549874     
 -0.296216999951499     
   5.97809935414829     
   8.05299983409673     
  -10.2086928792006     
  0.413162359877109     
  -9.12631028351866     
  -10.6566723197729     
 -0.374538693074056     
  0.684189059883379     
 -0.302828596710156     
  -10.0566225015920     
  -1.02134131802698     
 -0.297774429892934     
   3.47809849552873     
  -4.12868430415406     
  -6.17814292600743     
   5.06482520545153     
  -3.30811902297363     
   9.55206397369872     
  -3.68338428966919     
   7.12812266224143     
 -0.307519093185738     
  -10.5419870290955     
  -3.68766804146342     
 -0.258249622260243     
 -0.252107328587263     
   2.16883749197773     
 -0.252219037215156     
  -9.42555412757180     
   6.30663442490242     
 -0.258227970373823     
   9.94731863056611     
   6.88826193238995     
 -0.253758921061966     
 -0.110865911926521     
  -9.93079261669005     
 -0.246601606094402     
   7.08558432305454     
  -7.63110188272223     
 -0.243776285387912     
   6.69610937397848     
   9.58390177936159     
 -0.246151307650729     
  -7.17893553813833     
  -6.07342765395464     
 -0.234152133684847     
  -7.56841048721439     
   9.47833771601648     
 -0.255999322119076     
   9.46195410306257     
   9.27840381140559     
 -0.260538080992908     
   1.49509677265304     
  -8.34736038536652     
   5.24142901156426     
  -10.0074716627303     
  -8.73683533444259     
   6.63341797847065     
 -0.465099238908771     
  -9.99108804977635     
   4.84735752232204     
  -1.95093059367855     
  -3.98640463457454     
  -7.95788543629046     
 -0.983497437155669     
  -5.62721121543007     
   5.13086056916782     
  0.837251105406901     
  -5.68091551752282     
  -2.02436476145416     
   5.28753711455803     
   5.73806609914390     
 -0.266863462095150     
  -6.10880349716891     
   2.88530340252578     
 -0.253093276919467     
  -9.87441813801293     
 -0.247208773726176     
 -0.246847486103532     
   4.36018874507530     
   8.89128546177826     
 -0.252693919909690     
   4.25733081717745     
   6.40350477085758     
   3.35242895331680     
  -9.89278637205291     
  -8.41005178087436     
 -0.247871086545771     
  -8.02057683179830     
  -5.95620162217688     
 -0.241029483585731     
  -5.57278355497724     
  -7.24162693364616     
 -0.238613458929312     
  -4.53700746404388     
  -10.6402887068190     
 -0.240031733438559     
   6.24203638983940     
   9.42760021658591     
 -0.228722708051110     
  -8.75309889593268     
   9.14265355308812     
 -0.249387805425407     
   6.13281527762952     
  -9.09450724029312     
 -0.254552926446969     
   4.77799797927918     
   5.81582293091250     
   3.60240181549928     
  -9.51578523259472     
   8.79345477054705     
   8.64675649784308     
   8.99946162835034     
   9.00122859871991     
  -8.79952672995043     
   9.21223536333589     
   7.86453422120668     
   3.88553809481222     
  -9.55237901501909     
  -9.87640275909900     
   1.57893834614627     
   9.56120049758352     
  -9.94326021094619     
 -0.260404441951123     
   9.28352389991789     
   8.85301415680018     
   7.41236787662277     
  -8.14011039778396     
   5.10156820240059     
  -9.62224309484437     
  -5.95236838093532     
   5.43038244518475     
 -0.321901720486255     
   4.96339808172176     
   1.27408335567252     
 -0.306642716414154     
  -5.68372713734191     
   5.13820957767423     
   5.52768452675029     
   7.39926217677121     
   5.78967767298179     
   9.59176327572291     
   10.0128530823817     
  -3.67737814709482     
 -0.771245393825729     
   3.09588347315343     
 -9.292196864093907E-002
  -5.74333602766027     
   3.34850983877982     
  -3.83802700376455     
  -4.97750967981693     
  -1.09844280868549     
   2.99805859190393     
 -0.325111200096089     
   5.48912424402966     
  -9.62016529421247     
  -4.56767685580465     
  -1.64857328970610     
  -6.69311057980603     
 -0.240218475102893     
   9.01067024599406     
  -9.05682209433679     
 -0.247202503745772     
   4.53753539590697     
  -6.85215198457010     
 -0.315477210016157     
   4.91444487786734     
  0.723266289306829     
 -0.248673308386487     
  -2.65987889267317     
   8.72659492789066     
 -0.256712519617361     
  -6.46267703549404     
  -9.90526018167078     
   2.93101719771028     
   2.97023815758387     
  -5.50225960468045     
   5.18039253915249     
   3.80732243827770     
  -10.5911378679572     
   9.33400474830652     
  -4.08027798481924     
  -6.07594146465602     
  -3.41453545532268     
   2.22466025017272     
  -5.74865764690227     
 -0.893703369628706     
  -9.08092871318401     
  -9.88146007013565     
 -0.320007582006753     
   8.62666770903502     
  -7.38965622003868     
  -5.34649289671168     
   6.49442623085329     
   8.28513521478658     
 -0.312871420789995     
  -5.75585295489721     
  -4.28562790570743     
   2.69574094126548     
  -4.13895094880085     
   4.48784720817826     
 -0.326780413413596     
 -0.571821589701967     
   2.41357091949348     
   4.40598045093959     
 -0.520781225617070     
  -7.16409371799025     
   2.72950696151995     
  -7.51125168950328     
  -5.42022418422111     
 -0.227109370494503     
  -5.19334942318906     
  -1.49103512312076     
 -0.233520898418381     
  -9.92555359796072     
 -0.302051382237163     
  -5.79101624294866     
   5.20532105131218     
   4.27873431057845     
 -0.320208568471012     
   2.44843965910707     
  -9.94193721091463     
 -0.332644728460313     
  -7.23021498978067     
   4.11271172132558     
 -0.331245945890719     
  -5.72351376978971     
   5.23663225058683     
 -0.298181100599624     
   3.77376046491171     
  -3.69771417264087     
   1.39610025375890     
  -4.01748084410536     
   9.31450158647741     
   2.81388299178640     
   1.71552714973800     
  -5.59892982434767     
   4.74505429769517     
  -6.39998563998620     
   5.03517670754105     
 -0.340437972416172     
   4.67228647042431     
   2.62602109342164     
 -0.230749832797107     
  0.641249427287974     
 -8.470360684680550E-002
 -0.223174363013544     
  -9.39335027321998     
   1.15120736590528     
   1.59044727941331     
  0.762947349588354     
   3.19545724695901     
   9.22689786142362     
   5.91715947582635     
  0.331186605339518     
   4.62810183710225     
  -3.24893474054349     
   5.05490029046369     
 -0.217291866450256     
  0.940124882941355     
   1.98440166462788     
 -0.222990949514131     
  -9.95832082386853     
  0.961938447506131     
 -0.335410730844310     
  -10.4928361902338     
  -7.21079962887527     
 -0.331564674849822     
   2.82259997751908     
  -7.93573307709694     
 -0.324801252310124     
  -8.95652610481356     
  -4.03829786257380     
   8.97026767292703     
   7.25396546820123     
  -3.02564043597759     
 -0.343661524014165     
   5.01889539403357     
  -7.84933491744693     
  -8.80677732577335     
  -7.53007097445714     
   2.78906426380703     
 -0.353116571398959     
  -7.55985272858576     
  -10.2614176604641     
  -9.20412955695812     
  -8.79565877947342     
  -7.64144904213170     
   4.97764253475437     
   2.83606456940461     
  -9.82400738629769     
 -0.325140388125423     
  -9.59348524331299     
   3.47557272061104     
  -7.39607633962190     
  -10.5256034161416     
  -8.17960093337812     
 -0.221985064212914     
 -0.210160367346830     
  -9.84668374352162     
  -8.82901441837207     
  -8.34334587840880     
   9.96370224352002     
 -0.210461423721393     
  -8.62161577100175     
  -8.49699508021006     
 -0.195714641346484     
  -8.86433992278514     
  -9.39673869069212     
  -8.99064884798680     
  -6.77098003524856     
  -9.48640450683969     
 -0.215469701226277     
  -4.91729355868619     
 -0.204194238004950     
  -9.28314133081016     
  -8.84013296467145     
  -9.10363932024710     
 -0.203408474352787     
  -8.78454590772690     
  -8.89979742303023     
 -0.189489510688167     
  -9.00054254849156     
  -8.16848238703491     
  -5.01290800024000     
  -8.77330324523846     
  -9.40517665055583     
 -0.308285680912310     
  -6.19890273489331     
  -1.60385779300703     
 -0.298991701696875     
 -0.404383864464260     
  -2.66782403055718     
  -1.10384000323672     
  -9.25316039781988     
  -1.26188120099776     
 -0.323077028435810     
  -4.43873394674760     
  -9.62297240771882     
 -0.313589514556929     
  -5.76028481027513     
  -8.78868335836351     
 -0.313780273214535     
  -8.74792469620341     
  -5.33122107315124     
  -5.40724225362467     
   4.87067935671355     
  -9.73969492466983     
  0.627319841741156     
   5.19468275791415     
  -8.48762985642619     
  -10.2921369342950     
  -8.81789587207274     
  -5.35240037176978     
   10.0292366953356     
  -9.63744539545031     
  -9.24778338485734     
  -4.98464307601567     
  -8.89740531181374     
  -1.23627281829918     
 -0.283977424592700     
   5.03191500344677     
  -3.50207564824170     
  -9.49435558215872     
   8.58079272385097     
  -9.38255781187036     
  -9.66712197657216     
  -4.35813895982767     
  -3.65486588643412     
 -0.279980287883760     
  -8.76193079200801     
   9.11946957717672     
  -7.89341320778485     
  0.837962273341966     
   9.32142935944704     
 -0.634286048042622     
   5.27342768267235     
  -8.75781839638558     
 -0.195208066225275     
  -7.98438980156649     
  -9.52834665708406     
 -0.179824766527657     
  -9.44158035216604     
   1.07736109137119     
 -0.202561501931963     
  -7.55814625136047     
  -9.11695777318844     
 -0.187980085213282     
  -3.60188145857669     
  -5.30385708509886     
 -0.173355580887245     
  -3.86077295034547     
  -5.67386592284583     
 -0.194195459660908     
  -9.12865305816321     
  0.378120696483039     
  -9.71360302823162     
  -7.76249861856588     
  -10.3638152399002     
  -8.64282626621981     
  -8.49874840272547     
  -9.45286366727042     
 -0.327911434354084     
  -7.62104904349476     
  -4.60716629114550     
  -10.1717012135938     
  -8.63150947063423     
  -4.58205781031448     
  -8.50519146469177     
  -7.45412204943864     
  -8.87423362140505     
  -5.28267778647752     
  -8.50986694902478     
  -8.72746132567448     
  -4.93298170867309     
  -3.95320908060667     
  -5.59001836363736     
 -0.164028621881166     
  -5.37357967065759     
 -0.156119676972515     
 -0.153161879142190     
  -8.46545249518103     
  -8.76771208705327     
 -0.163096709744002     
  -8.38878531926513     
  -8.43151865992376     
 -0.151824101919024     
  -8.17791840699079     
  -9.24326669839007     
 -0.161006961710451     
  -8.21565665638623     
 -7.517363795521870E-003
 -0.142519057598605     
  0.252669414304792     
  -8.84133438110559     
 -0.138074162687582     
   2.57584029667866     
  -6.09111291026453     
 -0.138143686659834     
  -5.63807754901499     
   1.61244692915820     
 -0.177382750233186     
  -8.47651131012659     
  -8.51998879031285     
 -0.176477169476380     
  -4.40325867887061     
   10.0456203082896     
  -9.16639130756213     
  -8.26246068921272     
  -8.50558404855982     
  -2.91901000554978     
  -8.64140316630167     
   4.09153725875243     
   9.03085983376918     
   2.85131492037341     
   4.36884514913722     
  -8.45426388958851     
   9.33154125619668     
  -4.32719309213734     
 -0.187689561404430     
  -9.01043624244277     
  -5.01747946716988     
 -0.131493311058461     
   1.98636649306150     
  -4.31696036054890     
 -0.119492368332666     
   5.05736754545742     
   1.12894810741462     
   3.11485124213490     
  -9.52414275623864     
  -6.07923838872581     
 -0.121796457375706     
  -7.79810977382122     
  -8.41188463257395     
 -0.110644249401863     
  -6.88052170257803     
   1.82520021904387     
 -0.113904147203216     
  -8.44294549321040     
  -8.15736384073631     
   1.45128065513012     
  -8.27237008961835     
  -5.03865876578762     
 -0.100582312443800     
 -0.732628376320904     
  -8.14628867436252     
 -0.100492353284652     
   4.05527018545517     
  -8.48225054091383     
 -9.802250855155825E-002
  -8.59546528910176     
   4.38671747441028     
  -3.86201634343991     
 -0.918543031912839     
   3.48885676286895     
 -9.380389703479936E-002
  -7.90914791016485     
  -8.13515412557332     
 -8.121180441761823E-002
   4.70689279085510     
   4.34832365323902     
 -8.982540076552187E-002
  -5.55679919958955     
   2.95258946076818     
  -3.36094440848239     
  -2.71239010216450     
  -4.67708615946446     
  -3.58184039703901     
   3.38785144111200     
   3.32659498230896     
   1.29011438121599     
  -8.10539871123523     
  -8.51509424382139     
 -7.349638836380304E-002
  -3.33390345501235     
  -4.53759567623775     
 -0.171445118707457     
 -0.162810338257980     
  -9.04110505151315     
 -0.160778481363832     
  -1.61374711696610     
  -10.5092198031877     
 -0.171495402890852     
  -2.59095050602846     
  -2.34629377985077     
 -0.160466241575201     
  -2.62753313226016     
   1.05468650501256     
 -0.170770300732123     
  -1.64140707334466     
  -4.70061407559781     
 -0.150580540153379     
  -3.27531314978194     
  -1.33195048520290     
 -0.144960427423927     
  -2.96088392011010     
 -0.973190074854014     
 -0.147438167149951     
  -1.95087969932309     
  -1.30305395782203     
 -0.185180240964348     
  -3.45441809547492     
  -2.21641021607254     
 -0.185472145721516     
  -4.06500183559556     
  -2.31806902432703     
   1.33018199490740     
  -2.34706067976480     
  -1.97974644692597     
  -1.67028914540969     
   1.23852736535793     
  -2.68502503943145     
  -9.38109987742403     
  -2.03744629987723     
  -2.28922039364711     
 -0.954087872198268     
  -3.30535971888586     
  -3.27736999412587     
 -0.198206584985319     
  -4.27735486536595     
  -2.65654754090333     
 -0.139374682139882     
  -2.42642570795425     
  -1.44635631911516     
 -0.126547245412380     
   4.84009269951365     
  -8.13613907397193     
  -2.96584523015355     
  -1.75721218383793     
  -2.00861889540810     
 -0.129907271242400     
  -8.37300802647768     
  -1.77419718291804     
 -0.118474513991771     
  -8.06815483073488     
  -8.39867901091340     
 -0.122824783372157     
  -7.79354806239425     
  -7.91132452245898     
  -9.17345372968839     
  -4.71935978130071     
  -7.96748548505785     
 -0.108889092472242     
  -8.11253336117261     
  -8.01974144669103     
 -0.107690777529744     
  -8.12396019438438     
 -0.655285606704085     
 -0.107824119613991     
  -3.02324017239321     
   4.75175092339875     
  -5.37013331094365     
  -6.51013245248349     
  -7.81608774076842     
 -0.101665441060105     
   4.72652827546533     
 -0.993618063352626     
 -8.852851133816290E-002
  -5.54284616618782     
  -8.14018015758782     
 -9.844840992255344E-002
  -8.00516030691063     
  -2.40150952322033     
  -5.41593826509311     
  -8.15116924194180     
   2.68698152758287     
  -9.06868887611598     
  -7.43621611737658     
  -8.82432092423884     
  -7.65647403055383     
 -0.729355842774367     
  -1.38207663778891     
 -8.293268210377666E-002
  -7.85978929085956     
   2.32504640469057     
  0.702644184022457     
  0.705319305584906     
  0.687336956011987     
  0.680399542712457     
   3.16443354327302     
  -1.10446016494209     
  0.728696470428792     
  -7.19978086998929     
  -7.49687786438968     
  0.706522701172345     
  0.690444185164745     
  0.708218299097307     
  0.684803784314886     
   4.00417906752877     
  -6.85845308468128     
  0.731126370771348     
  -7.18874318620786     
   3.91813631413802     
  -8.10212831123026     
  -1.65204146761598     
   4.99384839003555     
  -8.71756753694599     
  -5.68043614654561     
  -4.09360798500339     
   4.41262696892539     
  0.671709290009504     
   3.77400849080820     
  -8.25339490578036     
  -7.76707644928586     
  0.668392850803499     
  0.402711992201015     
  -1.29224596927966     
  -1.23944263001917     
  -6.48979506711076     
  -4.26139689208600     
  -8.44829880404489     
  -2.99540211179447     
  -6.88931257346798     
 -6.173286052470973E-002
  -7.83821637118084     
 -6.914430980857143E-002
   1.50286767422818     
   4.21214626804630     
  -8.53653009088193     
  0.209061698675954     
  -7.65069887024560     
  -2.19765538197030     
  -5.30754449947684     
 -0.306414890442704     
  -10.1140416469334     
  -9.93565381617789     
 -0.362041466933022     
  -9.50846169088543     
  -7.51906890154156     
  -3.64359303761646     
  -9.88823072633706     
  -9.80826793006302     
 -0.340493449270712     
  -9.24309216157545     
  -6.54166613354916     
  -1.66171300718880     
  -2.09215315386291     
   4.09129018515837     
   4.58485139001621     
 -8.230003775917372E-003
 -0.712797975150037     
 -0.130437334780073     
   2.03795350862839     
   3.07900257128632     
 -0.121750460483900     
  -7.80198222748734     
  -3.67239215728866     
 -5.098409116750530E-002
  -9.13674516320253     
 -4.204724818123093E-002
 -5.990358596091731E-002
 -4.953249332370545E-002
   9.22475398059956     
 -0.304539395076428     
   4.03285097075072     
  -9.59897341680397     
 -3.193429778947299E-002
   6.02164619455223     
 -2.224036859851993E-002
 -4.102984065532407E-002
 -2.977885435904102E-002
   3.79996867470442     
  -5.47424663556926     
  -8.86205917363546     
   6.24394302939458     
  -3.61438933547789     
  -9.42195452653552     
  -6.86950968960172     
 -1.186053979810079E-002
  -5.95659470247313     
 -2.320152105875284E-003
 -2.100117740754949E-002
 -9.893736487594562E-003
  -7.72442502872600     
  0.665225537179095     
  0.652009848048648     
  -4.38138933136442     
  0.660343487986439     
  -1.10382391565609     
  0.648478465844044     
  0.700806813610984     
   4.11145437690578     
  -2.14039858807077     
  0.694887002786572     
  -7.48574866736286     
  -7.78727964478569     
  8.298238670683092E-003
  -7.46313582646229     
  1.769278433307440E-002
 -8.694559052217755E-004
  1.010121516970695E-002
  -6.43717202805264     
  2.853160355302148E-002
  -4.80958574593238     
  3.779862388662672E-002
  1.935358764598193E-002
  3.020524639860872E-002
   4.24502032867144     
  4.882498818837432E-002
   1.87678723667970     
  5.795552178286877E-002
  3.965213474555108E-002
  5.037485445984051E-002
  -7.50795035557061     
  -5.05983806464280     
  -8.88412732167500     
  -7.68388900490194     
  -1.74519361141434     
   9.69542058490923     
   4.95325749773667     
 -0.170994255056662     
  -1.73924877877461     
  -2.76327343978661     
 -0.157664909329859     
  -5.39475896854580     
 -0.374512355366171     
  6.916752291490004E-002
  -7.75312690959050     
  7.818523941586389E-002
  6.001409290428382E-002
  7.063087939614671E-002
  -7.28165759881685     
  -2.73790961165861     
  -7.46508059062227     
   9.38003603829304     
  -6.44967765185707     
   3.91244458475782     
   3.43538922523844     
 -8.905042350372863E-002
  -7.80490448654298     
   2.20004388257713     
 -8.388704692769197E-002
  -4.21503433997035     
  -6.84737759177270     
  8.955477234513268E-002
  -5.10219663772021     
  9.845485872403147E-002
  8.043402184879514E-002
  9.093953180967872E-002
  -5.08101736232376     
  0.109983522270504     
  -6.52818194987871     
  0.118777848136286     
  0.100907930283608     
  0.111313465219584     
  -6.80949910626062     
  0.130445694117435     
  -6.80635185774550     
  0.139139598471703     
  0.121427060432055     
  0.131737920252327     
  -6.36848251825911     
   3.42184837317890     
  -4.05980523589044     
  -8.29010890051974     
  0.679193194463706     
   3.71737828763690     
  -7.82709782508870     
  -9.93190347770384     
  -5.12337581101595     
  -3.74835679571529     
  0.661009134197918     
   3.69937355540476     
  -3.43690858345068     
  0.680954691076726     
  -3.77503847401420     
  -3.41158760811780     
  0.646060289735789     
  -7.49377764024513     
  -4.11391372871537     
   4.41047713753917     
  -7.52436703076372     
  -1.46223972919855     
  0.673326613116622     
   3.42596009678536     
   3.78314036726388     
  -4.76727561933661     
  -4.29550885304392     
  -7.10765571393846     
  0.654228581065986     
  -7.31532409980071     
   4.14156136295292     
  0.673868234761924     
  -7.03696515825071     
  -7.29157913131830     
  0.640790085432255     
  -7.63612723064199     
   3.84502832141064     
  -6.88107112570202     
   4.91340896686251     
  0.628092320410691     
   3.03375737982915     
  0.631838829475949     
   3.38390087732797     
  0.141988913729311     
  0.152200124348375     
  -2.47719593453247     
  0.150939436915839     
  -4.08823008038928     
  0.159528827385448     
  0.162582092305030     
  0.172710213348182     
   3.43885187447957     
  0.171454062431232     
  -6.79616075969184     
  0.179955148700910     
  0.191994879253177     
  -4.51613524642872     
  0.200414829196365     
  0.183211047372214     
  0.193262160982916     
  -6.21155435266452     