 TITLE="euler solver on unstructured grid" 
 VARIABLES= "X" "Y"  "P" "Rou" "U"  "V"  "nuT"
 ZONE NODES=       11173  ELEMENTS=       18178  ZONETYPE=FEQUADRILATERAL
 DATAPACKING=BLOCK
 VARLOCATION=([3-7]=CELLCENTERED)
 -0.307085624370620     
 -0.302255235356547     
 -0.302456890353484     
 -0.306828022164625     
  -7.77798978830418     
  -8.65087247260560     
 -0.301270638106091     
   8.92924533855719     
   9.03951156266626     
 -0.312186535721285     
   8.32113206328901     
  -9.45881725161234     
 -0.310045730566683     
   8.44183236947764     
   8.85845850499681     
   5.73551177688471     
  -9.30491557920288     
  -10.0626831918546     
 -0.317617626688541     
  -9.27249577486367     
   9.37045235396487     
 -0.314463240611502     
   10.0020204723082     
  -10.1777192665976     
 -0.317939364296426     
  -9.44070705519027     
   9.27703777104457     
 -0.311365692492144     
   9.46880683713279     
  -8.86508665100097     
 -0.307063662711462     
   6.37364978527918     
  -6.79041856395569     
   8.14074815437139     
  -6.79254282580572     
  -7.46554174042129     
 -0.301902654413069     
  -6.27957077466509     
   8.33456969454846     
 -0.311413195396882     
   6.02060014982527     
  -8.36874131765089     
   7.14594984140188     
   5.81809929923439     
   5.91418388807248     
 -0.306788325491777     
   5.06473834469666     
  -7.88898307555972     
 -0.313677106978666     
   5.47936822685070     
  -6.29327123876778     
   6.97592467326993     
   6.01179363217039     
   8.40862100522535     
 -0.306078706910846     
   8.89362338913978     
  -5.89310671633364     
 -0.310800276225971     
   7.25122351187452     
  -8.95464971420964     
 -0.300562104328645     
  -6.45277051422420     
  -5.57521743315005     
  -9.40356318338387     
   6.78941998789202     
  -8.74790895048062     
   6.45921848899996     
   9.15457005253858     
  -6.11480792513082     
  -6.79019236848874     
  -6.73586457479616     
  -9.77000329664967     
 -0.284023415200558     
 -0.283481973115097     
 -0.278732007268327     
 -0.289519774135983     
  -7.85285268593284     
  -7.22007387032337     
 -0.288204540959628     
  -8.35397166934068     
  -7.31630105740216     
 -0.284385766662759     
  -9.30561368677843     
  -6.92652687751623     
 -0.289775855947550     
  -8.85146917437948     
  -9.44121154796244     
 -0.293850987789608     
   9.63196331052465     
  -10.0444513784133     
   7.59984070685171     
   6.64635283656024     
   5.65564269855922     
 -0.297495724471942     
   8.52774701466092     
   6.12188712586157     
 -0.284380630626926     
  -9.96395681558988     
  -8.89069658272505     
 -0.280291343591093     
  -8.38961011638280     
   8.47106578901810     
 -0.278062051792778     
  -8.92663261189317     
   8.30679647044262     
 -0.273648419076028     
   9.06045473606987     
   8.79711926723692     
   9.14289437238383     
   7.88901964775831     
   6.81064654843488     
   5.19408075703989     
  -9.60576991870376     
  -7.88879471155836     
  -5.89789940240408     
  -7.90741164649107     
  -7.85686131239093     
 -0.287898764139276     
  -8.42550406842210     
   7.68373754370467     
 -0.286621726864902     
 -0.281230105658711     
 -0.285745374777772     
 -0.291927317875328     
  -7.58873381368815     
  -8.70086790132401     
 -0.290961496082408     
  -7.20044621840753     
   8.14251818805821     
 -0.287349032921429     
  -7.10115363750550     
   7.62963155490291     
 -0.292847616605732     
   7.83959226242110     
   7.56047249323155     
 -0.288941629823077     
  -7.31917234359401     
   5.86594661307437     
 -0.298175035929432     
   7.04155875324536     
   7.72475017208970     
  -8.84385497069896     
   5.58307297216698     
  -8.08993028881643     
 -0.300108995227305     
   7.18733056514086     
   5.26591070825859     
 -0.283061326862387     
  -8.20269394415993     
   7.44071382844480     
   6.30954836709215     
  -7.82439170195699     
   9.41237077970399     
 -0.276361963430571     
   8.05914086203559     
   8.82409110425055     
 -0.281123985863104     
   8.30361465126559     
   7.01348606683406     
   7.14267851370354     
   5.08654577605631     
   6.97845043550193     
  -9.45734620355870     
  -7.38763668631167     
  -7.35190026812197     
 -0.289903378123695     
  -9.51755047610677     
  -5.41808058937667     
 -0.296603552083532     
   6.64242865432361     
 -0.293649435262620     
  -7.71694951109861     
  -6.14241412433328     
  -5.72652467868667     
 -0.296883423808482     
  -5.21208567757618     
  -9.06314022623451     
 -0.294487278199207     
 -0.291931269843151     
   7.59968935957937     
  -8.96255301592257     
  -7.60509546316182     
   7.76985378601991     
 -0.295480558778777     
   5.13828551702492     
   8.72118399840459     
 -0.306963446014181     
 -0.299465964077782     
  -8.46232949608362     
   9.52265192018365     
   8.45184635085772     
   5.33038495819233     
 -0.304779195337272     
  -6.75154993734399     
   5.50936694475837     
  -10.0976448668800     
  -6.79936829611668     
   4.86644948518003     
   7.39597822602376     
   6.90370503709504     
  -7.17931433139588     
  -8.33799124531439     
   6.74195232673442     
 -0.298403215780617     
 -0.302552255770195     
  -5.43171082789439     
  -6.54476603282977     
 -0.305307223808994     
   6.29681723396344     
  -9.54466001722848     
  -8.36246625244937     
  -10.1131058652030     
   6.45204255810187     
  -8.29736134514079     
  -5.81996293960655     
  -9.92969523929930     
 -0.298593599747285     
  -10.0380603216889     
  -7.12093134835497     
 -0.305117720919981     
  -9.18493724822684     
  -1.90980348655770     
   6.61207424821963     
   6.02438792603473     
   5.18966470594529     
   6.24412841824967     
   4.69694201496306     
  -1.34468794971521     
   4.83703316595301     
  -1.76081995237294     
  -6.55632484808964     
  -7.88302127765777     
  -6.69482268815541     
   9.96705879728287     
 -0.275955585575100     
 -0.271083886335731     
   6.56061974815039     
   7.80902010050631     
   9.04647035196063     
   6.03161130164836     
 -0.271638473651902     
  -9.98110595012885     
   7.47124354124246     
 -0.277895908262840     
  -7.92493311366732     
  -9.31453212301663     
 -0.272153084181235     
  -5.94682534791495     
  -7.78054505330245     
 -0.267367339771809     
  -7.37067414353437     
   5.65247519869689     
 -0.264041225836119     
   7.98277642498599     
  -10.1092987585551     
 -0.258815835057110     
   8.14357044206477     
   6.62322244786300     
 -0.278888700355667     
   4.71641169236560     
   8.18962117846409     
 -0.265282117637330     
  -8.42214435978938     
   8.78185522806783     
  -10.4778530783305     
   7.51229679612519     
   5.42281237074769     
   8.08911252285433     
   5.26736285304163     
   6.49509274141560     
  -9.47077915410061     
  -10.5244686450309     
  -8.91790383131016     
  -6.70600724818759     
  -9.39114170098560     
  -5.90237002595593     
 -0.272880747973866     
   4.87232463330374     
 -0.268168572548398     
  -6.77434584362689     
   1.83958858574425     
  0.470718076089659     
 -0.268395595994165     
  9.917156991415704E-002
   9.83012557075154     
 -0.274459901700712     
  0.112693979883386     
   1.50764224242231     
 -0.268566212119406     
  -3.92498625898648     
   4.57370670657550     
 -0.263972712995672     
   9.36617392356218     
  -5.02843543601268     
 -0.260160483002493     
   9.00901312261529     
   8.91981430408837     
 -0.270616306392059     
  -9.96554938307304     
   1.35508805048566     
 -0.255518481742047     
   1.79327722897563     
  -9.89086308924829     
 -0.262173449307653     
  -9.89255786113767     
  -4.68868036975570     
  -3.37775216731496     
  -4.43045444283217     
  -9.77567084336465     
  -8.47749930824589     
   3.41107538784250     
  -4.08713775898667     
  -7.21022072016326     
  -5.22463960913866     
   9.29883650675134     
  -2.36754965152441     
  -10.0215825909484     
  -5.20541248946123     
 -0.301873573818541     
   6.74966479356166     
   6.90444723697669     
 -0.309291771111827     
  -9.48528712618702     
   5.07769426632228     
 -0.304601359008757     
   8.82827130559306     
   1.46559500240696     
  -6.61356449236658     
  0.862439385448483     
  -5.10354587853207     
   5.46211085256334     
  -9.55201852152813     
  -9.87802177561156     
   4.38431815867760     
   7.62031830803563     
   5.64459695627818     
  -10.0396021317993     
   7.59784048067813     
  -9.46121866892676     
 -0.296814765120467     
   6.08439176997497     
   7.97828681677983     
  -10.1026846384673     
  0.523187926444646     
  -9.00878380650561     
  -10.5477764283811     
 -0.257290108776578     
  0.797724938247643     
 -0.303490276597667     
  -10.1209526502302     
  -1.09280096727638     
 -0.297426321116031     
   3.52289967242686     
  -4.09846672045851     
  -6.08257250097801     
   5.06820957819935     
  -3.42832578777222     
   9.60433142291087     
  -3.80036774470824     
   7.20031137119366     
 -0.241605576337752     
  -10.4661991866554     
  -3.81079434989447     
 -0.257617070530016     
 -0.251509359207966     
   2.28429038623329     
 -0.251552739580915     
  -9.49035823804896     
   6.43090524675972     
 -0.257540807542190     
   9.88548155555710     
   7.00629150391645     
 -0.253018661640823     
 -0.228127882052911     
  -9.92667122315573     
 -0.245903858676182     
   7.21019555348771     
  -7.75595150956065     
 -0.243136471750209     
   6.82055040012371     
   9.52696564865963     
 -0.245374222979153     
  -7.06055803968563     
  -6.00599762909994     
 -0.233469574209683     
  -7.45020319304963     
   9.55188891080701     
 -0.255155425155005     
   9.54023501913190     
   9.31083205738299     
 -0.259786715395001     
   1.43410567497238     
  -8.22949349977761     
   5.30846388730390     
  -10.0859909752048     
  -8.61913865314162     
   6.51480208361269     
 -0.578476265902680     
  -10.0743370835297     
   4.92084902812459     
  -1.83621778212730     
  -3.88829480992198     
  -7.83984834641362     
  -1.05073666218344     
  -5.69046930089444     
   5.14862112348739     
  0.954842975568040     
  -5.61887962684034     
  -2.09639751140245     
   5.23320689295065     
   5.84941360915796     
 -0.266046358002529     
  -6.21423969251799     
   2.92542620284067     
 -0.253949290400571     
  -9.92278043946088     
 -0.248024949030778     
 -0.247731880594665     
   4.32411091397461     
   8.93633012216685     
 -0.253604360507275     
   4.22631739521756     
   6.49511529170785     
   3.31776107754866     
  -10.0044137334791     
  -8.53524181628864     
 -0.248830563091025     
  -8.14559666292465     
  -5.95617449163366     
 -0.241940330466673     
  -5.59375590049042     
  -7.36630635619665     
 -0.239464081511548     
  -4.50283168608462     
  -10.5361225367060     
 -0.241021284761736     
   6.20546367063167     
   9.41269132207864     
 -0.229607548271225     
  -8.71853594052395     
   9.11695851258007     
 -0.250452561411033     
   6.10024082465655     
  -9.05797495209134     
 -0.255529391755008     
   4.79135405483982     
   5.78133418360277     
   3.56289653651318     
  -9.39842895986960     
   8.85059561643954     
   8.66442464140702     
   9.05205469060307     
   9.01904753016100     
  -8.92488696965264     
   9.26035870499368     
   7.98948586021571     
   3.85048124373914     
  -9.59618225568181     
  -9.99275984180396     
   1.49005941723245     
   9.53471028038454     
  -9.91875789430524     
 -0.261451967174473     
   9.34054126015916     
   8.86691504315558     
   7.29409239034068     
  -8.15844170342426     
   5.01225494556207     
  -9.59989718655934     
  -6.04220451335820     
   5.45331532017641     
 -0.322189842358048     
   4.98692039002875     
   1.15731082496349     
 -0.306190919317829     
  -5.80772574274068     
   5.26196978666774     
   5.65161494003173     
   7.30695912041899     
   5.74567933759701     
   9.54202435467824     
   9.93209712225754     
  -3.64453628149868     
 -0.881771316075630     
   3.13962373389249     
 -2.554672450238160E-003
  -5.72904072264501     
   3.41961994472611     
  -3.78906882497450     
  -5.06234022431079     
  -1.02837668941972     
   2.88784326853477     
 -0.325129546465384     
   5.43218437866161     
  -9.50710417362632     
  -4.51850082467061     
  -1.71978728529058     
  -6.66973826564068     
 -0.241333074909234     
   9.04807634868581     
  -9.02490909125222     
 -0.246300911581705     
   4.63047073989890     
  -6.97666120283266     
 -0.315260598725825     
   4.92281931648007     
  0.607360802609803     
 -0.249944141870000     
  -2.77414108026797     
   8.75999752796115     
 -0.255662544587491     
  -6.58701604946866     
  -9.78807411323360     
   2.81551817664038     
   3.04142002307404     
  -5.54306918029286     
   5.19257994362404     
   3.69167231381902     
  -10.5011608616807     
   9.33987754736088     
  -4.04531408903805     
  -6.09869001276688     
  -3.36654100536282     
   2.11734059900076     
  -5.65997465567845     
 -0.828655250933438     
  -9.01686771531382     
  -9.86773515113476     
 -0.320455183564317     
   8.56873414026054     
  -7.50890956262865     
  -5.42334374362031     
   6.59873121894855     
   8.22849027434689     
 -0.312314891284823     
  -5.77157745800508     
  -4.33810435498859     
   2.66356691206263     
  -4.18749537536466     
   4.58865133742829     
 -0.326610327327022     
 -0.641836109081286     
   2.51606974362205     
   4.51438834624546     
 -0.420667839231828     
  -7.22988290907759     
   2.77337986234563     
  -7.40001719262681     
  -5.36708663241602     
 -0.228135479903202     
  -5.13704712151890     
  -1.41951976646431     
 -0.232696088854782     
  -10.0277215168293     
 -0.207389474928347     
  -5.71142367649210     
   5.14278371112704     
   4.22968274819398     
 -0.319855708640451     
   2.41349471191984     
  -10.0393754085044     
 -0.332987606547708     
  -7.17813697029397     
   3.99754908586309     
 -0.220337252007142     
  -5.65037006818857     
   5.23480867026158     
 -0.297466480203287     
   3.66193828959038     
  -3.60675103166683     
   1.50892740169368     
  -3.92399224508872     
   9.43534999405591     
   2.77766909359699     
   1.82949936553918     
  -5.65607385869810     
   4.66387354183425     
  -6.28126773295764     
   4.92177762944396     
 -0.340455234131701     
   4.56265566305231     
   2.72475106269493     
 -0.229755551008062     
  0.734181563780714     
  1.385025676264329E-002
 -0.224367014029431     
  -9.50614859005704     
   1.23951670882852     
   1.49696935169967     
  0.851044258562062     
   3.13139536364689     
   9.17364295706627     
   6.04126009339573     
  0.420814892106017     
   4.51232800545589     
  -3.31667522568339     
   4.97046690932252     
 -0.218210693379927     
   1.02369442164457     
   1.89438753918151     
 -0.222264530397483     
  -10.0510293001795     
   1.05485629666676     
 -0.335898493531209     
  -10.4312375116300     
  -7.27164422873040     
 -0.331742068446085     
   2.75159790886866     
  -7.87902897972355     
 -0.324026349974726     
  -8.89871134740679     
  -3.94933356105620     
   8.85267300379666     
   7.18740100536567     
  -2.90980820653401     
 -0.343329103870440     
   4.91210799864957     
  -7.90534509011078     
  -8.85553817018805     
  -7.58849856172122     
   2.89189178915099     
 -0.353506125141349     
  -7.50502791468284     
  -10.2666262939983     
  -9.15380971639331     
  -8.83986840611461     
  -7.58302796658156     
   4.87520658534371     
   2.76035376420649     
  -9.77517235601592     
 -0.325765204995220     
  -9.59649869608421     
   3.40774120575128     
  -7.37944192529566     
  -10.4545452949803     
  -8.23774588106621     
 -0.221140202821176     
 -0.209389736517973     
  -9.85162305529622     
  -8.88687769833380     
  -8.36575015755046     
   9.89713544723221     
 -0.209533812065831     
  -8.63442544373503     
  -8.51447724505715     
 -0.194900255964213     
  -8.88060378586480     
  -9.36275808413881     
  -9.00261531466935     
  -6.71195931228479     
  -9.44775093344132     
 -0.216505734545838     
  -5.00630117974460     
 -0.205145945770134     
  -9.29870125630546     
  -8.90254746240669     
  -9.14087229899169     
 -0.204516951122947     
  -8.82419638694589     
  -8.84683775914080     
 -0.190472233979103     
  -9.00046003198328     
  -8.22207611694944     
  -5.10608674032807     
  -8.80839409325667     
  -9.40465119657136     
 -0.309091407430956     
  -6.22580583051957     
  -1.48624680482234     
 -0.299934034142052     
 -0.512139130199251     
  -2.55190834240058     
  -1.21659454730535     
  -9.24448308836971     
  -1.14733645712070     
 -0.323956880486847     
  -4.48425705062074     
  -9.61312073281913     
 -0.314314423962390     
  -5.78834166349629     
  -8.74941297616145     
 -0.314357249241372     
  -8.75643697253957     
  -5.23677370299046     
  -5.50378429240529     
   4.86960108820197     
  -9.70375029960307     
  0.732557285566096     
   5.30521090799600     
  -8.53880714359083     
  -10.2884773405636     
  -8.87120793426095     
  -5.26249821396575     
   9.94375101393265     
  -9.69037018023838     
  -9.22646153622529     
  -4.88802720495423     
  -8.87672296649508     
  -1.14128961240515     
 -0.283084818494877     
   4.97457382890619     
  -3.44743417380846     
  -9.51336542801685     
   8.46302785043267     
  -9.35725534120115     
  -9.64024025055331     
  -4.26666371177082     
  -3.61153973167720     
 -0.281065464475489     
  -8.79246152504685     
   9.12969874276109     
  -7.89586069494266     
  0.947185794876677     
   9.33618114802091     
 -0.521313834445548     
   5.30840577357455     
  -8.75428168951353     
 -0.194248485859956     
  -7.99488789338672     
  -9.53490601510917     
 -0.178968156150398     
  -9.45271302387840     
   1.18262378360823     
 -0.201440615185202     
  -7.62146006914310     
  -9.12462684347387     
 -0.189107122475671     
  -3.66765629991251     
  -5.20478683482108     
 -0.174366534463432     
  -3.74911280503227     
  -5.57611716559301     
 -0.195489733004906     
  -9.08740064427255     
  0.259589473482292     
  -9.68189128664108     
  -7.72894097833631     
  -10.3394631158824     
  -8.61830536945725     
  -8.55447690766362     
  -9.50145165160953     
 -0.327388433990109     
  -7.57085746872362     
  -4.50381610483811     
  -10.1255473389872     
  -8.63227016020646     
  -4.47372926736042     
  -8.51024968541184     
  -7.40781580769150     
  -8.87844850134410     
  -5.17906232384303     
  -8.57014667173644     
  -8.74804468968861     
  -4.82721398905418     
  -3.85048616436198     
  -5.48001697165735     
 -0.165172444263315     
  -5.28822272521637     
 -0.157155115156663     
 -0.154329880200324     
  -8.50752047487391     
  -8.75212639698493     
 -0.164382112697361     
  -8.38609181847677     
  -8.45991792636184     
 -0.153139771640192     
  -8.13328023646341     
  -9.24663837227839     
 -0.162488726751256     
  -8.16648477252179     
  0.100403060728877     
 -0.143746720233649     
  0.358045056434305     
  -8.86624021784666     
 -0.139129991547616     
   2.68243711867145     
  -6.15483832441485     
 -0.139547681312574     
  -5.54522140390641     
   1.72214404118884     
 -0.178587485568183     
  -8.52313737951772     
  -8.47345672977299     
 -0.177854619429864     
  -4.32087157365879     
   9.95540490560776     
  -9.12060518033442     
  -8.26406482882963     
  -8.57076337208501     
  -3.03668685991008     
  -8.63011487264940     
   4.17103120251756     
   9.03247709760495     
   2.96742341783447     
   4.26658581859373     
  -8.49177329580357     
   9.30129022923545     
  -4.23107675860492     
 -0.189291940807780     
  -8.99830474268352     
  -4.92555129002373     
 -0.132690118142170     
   2.09639764373639     
  -4.35706051207568     
 -0.120564451632626     
   4.95920084936788     
   1.22634407600416     
   3.22651786485240     
  -9.48095546950321     
  -6.13839222149344     
 -0.123022195446794     
  -7.75989920664909     
  -8.37926946701108     
 -0.111824557211882     
  -6.93923125040794     
   1.93113098857310     
 -0.115243505428985     
  -8.47589584217105     
  -8.20640635287733     
   1.55687738601392     
  -8.26192500207744     
  -4.95127580099818     
 -0.101827108902841     
 -0.638419252526845     
  -8.19077679719836     
 -0.101576884797020     
   3.95555567443137     
  -8.44025219371105     
 -9.948228144795349E-002
  -8.53986580188774     
   4.27543356806461     
  -3.82353949698402     
 -0.828275677417476     
   3.60084406927602     
 -9.498136725309805E-002
  -7.97066512532899     
  -8.17508473265624     
 -8.230500927251785E-002
   4.60687037350001     
   4.24144711135751     
 -9.111121092502698E-002
  -5.45488222018901     
   3.05951384493942     
  -3.26800049288194     
  -2.62002968711375     
  -4.58306714917792     
  -3.47221572795382     
   3.27884271722697     
   3.43384005014576     
   1.39161073095277     
  -8.06997000889782     
  -8.50810334660116     
 -7.489263227087875E-002
  -3.23639336010747     
  -4.48298492536720     
 -0.170447901567241     
 -0.161914275549125     
  -9.01513715626937     
 -0.159747675254024     
  -1.50183473184353     
  -10.4428914033051     
 -0.170356219899555     
  -2.47905783725938     
  -2.22943633253100     
 -0.159287045729101     
  -2.52153056777632     
   1.16814241750122     
 -0.169433525536850     
  -1.53411735378603     
  -4.61118646068432     
 -0.149480964853468     
  -3.16865639575735     
  -1.22725765537084     
 -0.144028287394160     
  -2.85176894407227     
 -0.871219197667723     
 -0.146158974506144     
  -1.84099323340139     
  -1.19382275282208     
 -0.184133949133594     
  -3.41644162047551     
  -2.10454013485639     
 -0.184252871089979     
  -4.02143390149998     
  -2.21466282380175     
   1.42297235697410     
  -2.24819660073213     
  -1.87439838378118     
  -1.56753781138131     
   1.34789043874261     
  -2.58811312593860     
  -9.42046993744595     
  -1.94118482629337     
  -2.18127576224753     
 -0.856323059243495     
  -3.20327867745668     
  -3.16601726735283     
 -0.196772845898804     
  -4.23836438781925     
  -2.55508725369517     
 -0.138296246966907     
  -2.34116627999134     
  -1.35980570965933     
 -0.125582683783222     
   4.79821064701128     
  -8.14204069333625     
  -2.86178479255352     
  -1.67256536511251     
  -1.90780918762625     
 -0.128791530114634     
  -8.34506347596978     
  -1.69401652690432     
 -0.117394333278673     
  -8.03738789940061     
  -8.38393652695233     
 -0.121588877959353     
  -7.82678656067291     
  -7.85951281526998     
  -9.11897895378899     
  -4.63445817670574     
  -7.94512631758037     
 -0.107735837026045     
  -8.14335224353150     
  -8.01789134485837     
 -0.106697224042082     
  -8.15933015926533     
 -0.546709791635954     
 -0.106454303668236     
  -2.92830684174870     
   4.66562588302028     
  -5.29800680017663     
  -6.57132478694987     
  -7.85843637718446     
 -0.100573392817165     
   4.63121910436821     
 -0.886983740647788     
 -8.750948462911032E-002
  -5.47458586408301     
  -8.10007570039746     
 -9.724487722392268E-002
  -7.99085865138211     
  -2.31171784633251     
  -5.33967174439758     
  -8.13242573130802     
   2.58747124923067     
  -9.08873429632445     
  -7.45597363684068     
  -8.78042868702358     
  -7.66760348492598     
 -0.643034851328776     
  -1.29981099166958     
 -8.160479920069810E-002
  -7.88246048570343     
   2.22758750446735     
  0.703511930733162     
  0.706046619890854     
  0.688086514726339     
  0.681333567845048     
   3.26758407393313     
  -1.01813471121070     
  0.729366187942693     
  -7.25607368063801     
  -7.54164873522275     
  0.706270773904813     
  0.690296730022432     
  0.708108714280865     
  0.684466366128925     
   3.95596605623930     
  -6.90805947274170     
  0.731094609839202     
  -7.24048435090415     
   3.86503548334855     
  -8.03085771981117     
  -1.55407280885194     
   4.90032931292433     
  -8.68779758011071     
  -5.59667042617355     
  -4.21358837675855     
   4.50122291764865     
  0.671523403808069     
   3.72685396111300     
  -8.19968930857885     
  -7.77382152515625     
  0.669164374492460     
  0.503704699443148     
  -1.19222559624444     
  -1.11846951620406     
  -6.54188444310614     
  -4.15602805234141     
  -8.41099903958381     
  -2.89590945863817     
  -6.95166353368784     
 -6.283124899752415E-002
  -7.88967532607055     
 -6.810311591434492E-002
   1.60059768146195     
   4.32468551855239     
  -8.51701835174419     
  0.303772586946212     
  -7.64969206522062     
  -2.12823085534460     
  -5.19903785047699     
 -0.305488476793674     
  -10.0849878984879     
  -9.89496660466369     
 -0.362011391912588     
  -9.46078167364525     
  -7.57294429917547     
  -3.54348269532019     
  -9.90889709128736     
  -9.76270450305282     
 -0.341190952266089     
  -9.29903637178744     
  -6.54351797783688     
  -1.56841264903415     
  -2.00494183100444     
   4.00089398248087     
   4.53965178642087     
  0.105103455736017     
 -0.608510811522749     
 -0.128808444874216     
   2.14011793565489     
   2.97310850007573     
 -0.123465601335069     
  -7.81734293792179     
  -3.57688722793119     
 -5.229578772634423E-002
  -9.12031626702717     
 -4.314770189660884E-002
 -5.864034838043038E-002
 -4.847206083364304E-002
   9.22163877673478     
 -0.305728873732517     
   3.92846137941761     
  -9.59403893756277     
 -3.326311918872078E-002
   6.14047925865956     
 -2.333986306400996E-002
 -3.973290528432516E-002
 -2.870209279286378E-002
   3.89179746930520     
  -5.36024867526798     
  -8.81363322308313     
   6.12515693024870     
  -3.50969627927806     
  -9.40892485670217     
  -6.92366758037777     
 -1.318710773877328E-002
  -5.89932059402383     
 -3.416015156916357E-003
 -1.968897035244983E-002
 -8.803211023003778E-003
  -7.69550633161281     
  0.664810490503950     
  0.651784280508404     
  -4.29445758480704     
  0.661337821038195     
  -1.02553119535923     
  0.649272359249543     
  0.700257295861427     
   4.06683814110622     
  -2.06224254192813     
  0.696046452119027     
  -7.52596418296599     
  -7.81540396792080     
  6.976568912431673E-003
  -7.49424285642476     
  1.660306721921641E-002
  4.554603023424592E-004
  1.120307852790064E-002
  -6.38630057618575     
  2.721728390160680E-002
  -4.74291122599583     
  3.671743180325444E-002
  2.068883358518426E-002
  3.131615682547365E-002
   4.32906303636583     
  4.752028323451108E-002
   1.97485128256581     
  5.688497585838170E-002
  4.099550505065922E-002
  5.149274179766723E-002
  -7.55727453543123     
  -4.97700031221590     
  -8.87629321833184     
  -7.65959526703533     
  -1.67011036570308     
   9.70630297354859     
   4.90701705307828     
 -0.169134812213412     
  -1.65027091293852     
  -2.67999405756822     
 -0.159473054310231     
  -5.31394723547451     
 -0.269081715902372     
  6.787451572533384E-002
  -7.73455298162980     
  7.712733709662159E-002
  6.136355369885437E-002
  7.175381578650214E-002
  -7.28149398813514     
  -2.65008848350451     
  -7.49026575003428     
   9.48196556075635     
  -6.50638500423028     
   4.01623648256095     
   3.31966117966825     
 -8.723312314153872E-002
  -7.84269671001242     
   2.30630949969033     
 -8.578173247374042E-002
  -4.16306244027608     
  -6.89243262009364     
  8.827539878043289E-002
  -5.02844931034595     
  9.741145710916058E-002
  8.178768214680240E-002
  9.206570058956320E-002
  -5.00272482225673     
  0.108719604449710     
  -6.57565341768607     
  0.117750692406124     
  0.102264009691682     
  0.112441173060328     
  -6.75804711116433     
  0.129198952442517     
  -6.76335735792079     
  0.138130405710158     
  0.122783872916249     
  0.132865489087353     
  -6.32301589996900     
   3.32706024191798     
  -3.97536466382096     
  -8.26708601001038     
  0.678641926291224     
   3.61547564682957     
  -7.87400556220573     
  -9.93203741527731     
  -5.05417369679581     
  -3.66647722770758     
  0.660317794235813     
   3.59292345244997     
  -3.35759002197087     
  0.680227845674985     
  -3.69771349667887     
  -3.32772726325813     
  0.645580755357958     
  -7.45292724974623     
  -4.03861022203283     
   4.31766526525571     
  -7.52765776324312     
  -1.38403040310548     
  0.674468945416097     
   3.51746835459382     
   3.69971120918804     
  -4.69150227256154     
  -4.19475843014967     
  -7.09131773970452     
  0.655494692523195     
  -7.29403195797239     
   4.06055657862999     
  0.675187150775426     
  -7.01174293094709     
  -7.27936626406024     
  0.641831985765325     
  -7.62266878127771     
   3.76787809054410     
  -6.88215841174232     
   4.84689062763157     
  0.628908403948259     
   2.98877089288818     
  0.631573347934007     
   3.27993772494195     
  0.143344865781080     
  0.153326085957123     
  -2.40101996006354     
  0.149711497362576     
  -4.00836387339427     
  0.158539094318184     
  0.163935688020913     
  0.173833028475955     
   3.34868068845152     
  0.170246443718478     
  -6.81724495383464     
  0.178986451718521     
  0.190808978476004     
  -4.45653713644205     
  0.199468411571541     
  0.184560916737662     
  0.194380619227931     
  -6.15706136404492     