 TITLE="euler solver on unstructured grid" 
 VARIABLES= "X" "Y"  "P" "Rou" "U"  "V"  "nuT"
 ZONE NODES=       11173  ELEMENTS=       18178  ZONETYPE=FEQUADRILATERAL
 DATAPACKING=BLOCK
 VARLOCATION=([3-7]=CELLCENTERED)
 -0.307131095502897     
 -0.302222466596837     
 -0.302591806148708     
 -0.306744334667061     
  -7.62507154727613     
  -8.86622560403680     
 -0.301068232764636     
   9.19262962471710     
   9.22969475025279     
 -0.312169376657552     
   8.52030019264826     
  -9.67690738835907     
 -0.309848426061425     
   8.62142534352834     
   8.65906715779871     
   5.45386060555351     
  -9.46825180118044     
  -10.2627490764224     
 -0.317486024937410     
  -9.47379089249595     
   9.17421433218669     
 -0.314066646446997     
   9.74089422232345     
  -9.89804961387332     
 -0.318095032000237     
  -9.19206049272353     
   9.10002825881194     
 -0.311492654396523     
   9.25726135250220     
  -9.09953582203445     
 -0.307268477338475     
   6.12667203849665     
  -6.62952253916557     
   8.41267729815100     
  -6.59317583345456     
  -7.29146139329410     
 -0.302204917585831     
  -6.09732494553759     
   8.58169784376658     
 -0.311664196681972     
   5.79150992152041     
  -8.12093867284113     
   6.87739304054681     
   5.56357630057561     
   6.11821259784157     
 -0.307152488527284     
   5.29071566115970     
  -7.62648038525365     
 -0.314090809462093     
   5.69451216525078     
  -6.55127101421632     
   6.72604538060710     
   6.23718173828215     
   8.63844482542605     
 -0.306617604497177     
   9.10748371116992     
  -6.16673254753334     
 -0.311450238087253     
   7.48774825912129     
  -9.21018007547256     
 -0.301032966913520     
  -6.20576000208284     
  -5.82859277786807     
  -9.25896168939865     
   7.01337640014081     
  -8.48434200102169     
   6.19176220307175     
   8.88923699514391     
  -5.91136808426268     
  -7.04031950337768     
  -7.00713699322605     
  -9.60667954546241     
 -0.285385180905120     
 -0.284684302341414     
 -0.280043777624413     
 -0.290793312616304     
  -7.63224258114959     
  -6.97021049956075     
 -0.289643580754660     
  -8.12376002598073     
  -7.08826799979835     
 -0.285921170251818     
  -9.07345093024739     
  -6.74374078840997     
 -0.291365235225014     
  -8.61021499552616     
  -9.22386591567947     
 -0.295293952683788     
   9.35205021451586     
  -9.83689823963556     
   7.88744032816809     
   6.42978056352319     
   5.84455907112704     
 -0.299144018066832     
   8.34356181332760     
   5.91225989803357     
 -0.286210841093986     
  -9.73307982274687     
  -8.66789798068896     
 -0.281733046331211     
  -8.17641506379387     
   8.24208977312720     
 -0.279641535001947     
  -8.72084061149687     
   8.09428547690104     
 -0.275060331153018     
   9.29863209432718     
   8.57975513480910     
   8.91364462331957     
   7.66443642575184     
   6.57760844287246     
   5.00495928221703     
  -9.84686617924555     
  -7.68519273683064     
  -6.05984362709661     
  -8.16606540069321     
  -7.61736470405514     
 -0.288980052308875     
  -8.22932465435536     
   7.40295541003468     
 -0.285514506669430     
 -0.280168115473522     
 -0.284796958630489     
 -0.290913143288842     
  -7.79544188606176     
  -8.89499417998235     
 -0.289780802679695     
  -7.41928252261670     
   7.94647227183775     
 -0.286068660900848     
  -7.30274846692441     
   7.83354382037050     
 -0.291518125965701     
   8.07234205849143     
   7.36881917337557     
 -0.287443267956439     
  -7.55575844875369     
   5.67186029946163     
 -0.297020323796257     
   7.24915117994935     
   7.51663196708187     
  -9.02114792290947     
   5.40467415540415     
  -8.29193871872831     
 -0.298676180413091     
   7.37679554016069     
   5.02274127802527     
 -0.281870916706271     
  -8.38677200594255     
   7.66088530521971     
   6.12803316431839     
  -8.04694723567838     
   9.25901929585750     
 -0.275195392393922     
   7.81671886301813     
   8.66901374335188     
 -0.279793936643885     
   8.03772669795465     
   7.26444891450454     
   6.93895362953090     
   5.27261758549245     
   6.79119058740512     
  -9.25871941989525     
  -7.19363446255521     
  -7.14088192115337     
 -0.289079827959056     
  -9.70159181381534     
  -5.70470700125188     
 -0.295807084012182     
   6.83743941641001     
 -0.292963715555341     
  -7.89118733288105     
  -6.36904319678373     
  -5.96281197384007     
 -0.296349020468465     
  -5.44951034884316     
  -8.89090715960616     
 -0.295514434574916     
 -0.292878197309345     
   7.34314818925794     
  -8.77376690010338     
  -7.79724928382041     
   7.95295939872701     
 -0.296279195668507     
   5.34174777561406     
   8.47463313879880     
 -0.306636708061590     
 -0.299094382630321     
  -8.28315179666695     
   9.27661187016542     
   8.28356657659227     
   5.06725972636450     
 -0.304302249840274     
  -6.53376593394584     
   5.75268935238194     
  -10.2644892238444     
  -6.53090132449264     
   5.11054716381078     
   7.22079137051942     
   6.75688953239264     
  -7.34378306103635     
  -8.57029706639772     
   6.92171961072334     
 -0.299041486460209     
 -0.303319727725126     
  -5.63454137617087     
  -6.71682801843390     
 -0.305963528642335     
   6.15154455389183     
  -9.41419314198272     
  -8.61340260848134     
  -9.98512152340398     
   6.61847584489036     
  -8.56955270951456     
  -5.57600498913527     
  -9.78686986349509     
 -0.299489343697830     
  -9.85118574852426     
  -7.30321577020880     
 -0.306127682581148     
  -9.46004100709700     
  -1.75792486269767     
   6.45607696826387     
   6.17666198692184     
   5.02566842402466     
   6.42654989473387     
   4.51844801513143     
  -1.18873300511693     
   5.10092810722850     
  -1.59661675967306     
  -6.75011718126627     
  -8.12523586292233     
  -6.84867513524092     
   9.73915407490147     
 -0.274617097387562     
 -0.269819052544546     
   6.36128956894182     
   7.64610238998266     
   9.22169881369292     
   5.86787267083337     
 -0.270218184168710     
  -10.2586887324378     
   7.23458821803683     
 -0.276386608785781     
  -7.73834612373352     
  -9.60289661021425     
 -0.270569511140816     
  -5.68242250848975     
  -7.93698177827142     
 -0.265873013180261     
  -7.62666539190326     
   5.50409848720800     
 -0.262314346855920     
   8.14695033898798     
  -10.2650692729851     
 -0.257363931558154     
   8.29280223398455     
   6.77571551933880     
 -0.277130358537524     
   4.87137978039399     
   8.04012043734375     
 -0.263922787395342     
  -8.58567841109465     
   8.94025216903663     
  -10.2834133268369     
   7.36511210654086     
   5.69557123958404     
   8.30616839402733     
   5.04365519620435     
   6.75208738706204     
  -9.53519246756183     
  -10.2857335233996     
  -9.06924752497814     
  -6.93826337725035     
  -9.44305602380315     
  -6.08894082827287     
 -0.274464053498191     
   5.15870760189443     
 -0.269673948633832     
  -6.54020216120573     
   1.56710263805282     
  0.745070433942582     
 -0.270056776421747     
  0.383425396264041     
   9.73233849753112     
 -0.276215588434020     
  0.387036884624844     
   1.24291565475227     
 -0.270390981760664     
  -3.65001664804371     
   4.75707927165195     
 -0.265704052424554     
   9.33987188414642     
  -5.31488804035565     
 -0.262121190646087     
   8.97148945922744     
   8.98418777149076     
 -0.272616884813897     
  -9.98235842929014     
   1.19986156236789     
 -0.257199812394344     
   1.64465450845607     
  -9.94720420752095     
 -0.263768059649152     
  -9.96267474602772     
  -4.96574434590199     
  -3.51047258528170     
  -4.16106991484974     
  -9.80592534025607     
  -8.31532902543910     
   3.68418505161302     
  -3.82587282992693     
  -7.06926434742325     
  -5.49582270342758     
   9.20309820445516     
  -2.21080897353409     
  -9.99688526598131     
  -5.30570181106085     
 -0.301206320874609     
   6.57935241264714     
   6.62331748824222     
 -0.308661732019742     
  -9.56239651871068     
   4.90020380042397     
 -0.303679861651854     
   8.97591657055626     
   1.74165274695721     
  -6.82665477221508     
  0.599062276079781     
  -5.18751577283636     
   5.25302471048140     
  -9.50494222728291     
  -9.96244554908833     
   4.65909652028771     
   7.89088771543684     
   5.81608968255102     
  -9.98776395402079     
   7.85246707180388     
  -9.27820278008733     
 -0.298042502311887     
   6.32960169873936     
   7.79886906766883     
  -9.84881507433073     
  0.780336634111571     
  -8.72859273118462     
  -10.2868936216809     
  1.720941635037002E-002
   1.06292931762838     
 -0.304863723140808     
  -10.2656493221257     
  -1.25938071468296     
 -0.296440444679057     
   3.62570109276437     
  -4.02539932286115     
  -5.85544229125325     
   5.07320916428195     
  -3.70762409117034     
   9.72110004559830     
  -4.07190947336782     
   7.36507881692672     
 -8.723460192899368E-002
  -10.2828332776963     
  -4.09670380570728     
 -0.255988554904856     
 -0.249965281576693     
   2.55312407581383     
 -0.249848754889555     
  -9.63652719318999     
   6.71798344547938     
 -0.255784550703172     
   9.73509373091684     
   7.27843427732535     
 -0.251140768466637     
 -0.502379103364229     
  -9.91130925905231     
 -0.244129538315969     
   7.49762136727184     
  -8.04362076662930     
 -0.241499305466068     
   7.10780240637561     
   9.38825212346620     
 -0.243414565563083     
  -6.77949792670344     
  -5.84475757690375     
 -0.231737955073135     
  -7.16931688759967     
   9.71848982448694     
 -0.253033798415824     
   9.71790977534628     
   9.38134777047705     
 -0.257878936006418     
   1.29056578511622     
  -7.94895480939214     
   5.46226161978557     
  -10.2639091747037     
  -8.33877377028838     
   6.23349852734598     
 -0.843435245527393     
  -10.2633291255631     
   5.08997798955010     
  -1.56674219814907     
  -3.65648664540947     
  -7.55913584849591     
  -1.20746522152162     
  -5.83520962374536     
   5.18721338127899     
   1.22944750888638     
  -5.47048437100009     
  -2.26374014104235     
   5.10306438806293     
   6.10658737041980     
 -0.263981150480191     
  -6.45737134211169     
   3.01762481105343     
 -0.255805998487521     
  -10.0302279190705     
 -0.249791852031839     
 -0.249658579278408     
   4.23720107343165     
   9.03658286084123     
 -0.255588621928175     
   4.15131415800223     
   6.70573428764851     
   3.23473011645872     
  -10.2598488307191     
  -8.82325868842178     
 -0.250932314240998     
  -8.43343972752554     
  -5.95267994888180     
 -0.243932261629692     
  -5.63960704520175     
  -7.65380180573307     
 -0.241316519589771     
  -4.42026952933436     
  -10.2863135725402     
 -0.243197906772806     
   6.11631208075645     
   9.37238363877757     
 -0.231545730459310     
  -8.63263936256667     
   9.05158255916261     
 -0.252799722782603     
   6.02050543771337     
  -8.96727477549942     
 -0.257667036240422     
   4.81984602606705     
   5.69730322374901     
   3.46840526941184     
  -9.11841169208085     
   8.97920174634395     
   8.70077538442353     
   9.16990335850389     
   9.05554682263360     
  -9.21307764931801     
   9.36762862847470     
   8.27725928906432     
   3.76623324092115     
  -9.69315007362441     
  -10.2592687815785     
   1.28123223764359     
   9.46723303758655     
  -9.85571093194673     
 -0.263752473869324     
   9.46857621093649     
   8.89433409285824     
   7.01313644913845     
  -8.19663565894911     
   4.80038251315247     
  -9.54207970894941     
  -6.24893249704117     
   5.50383483131964     
 -0.322678424295674     
   5.03908779019557     
  0.883406765367298     
 -0.304957372533212     
  -6.09452596214813     
   5.54852656279067     
   5.93834552368691     
   7.08676895528220     
   5.63941732207623     
   9.42014298868195     
   9.73741392747949     
  -3.56558978349257     
  -1.13988424948247     
   3.24016349073884     
  0.208898276425401     
  -5.69229075470999     
   3.58404142556355     
  -3.67232832198797     
  -5.25792002684804     
 -0.863835772573306     
   2.62828561914945     
 -0.324985184178099     
   5.29582091711915     
  -9.23707457934655     
  -4.40083037651454     
  -1.88543104882375     
  -6.61120700977460     
 -0.243802119699438     
   9.13039116670601     
  -8.94503668073231     
 -0.244049383830008     
   4.84526383494250     
  -7.26398284483683     
 -0.314572141320651     
   4.93957896734936     
  0.335802348490125     
 -0.252773799228120     
  -3.03990644268427     
   8.83311045214761     
 -0.253058421281826     
  -6.87416388394060     
  -9.50823065297709     
   2.54363880507905     
   3.20622727730033     
  -5.63536688633978     
   5.21810620137388     
   3.41893466431785     
  -10.2845734251183     
   9.34823913263958     
  -3.96117135974222     
  -6.14840644664553     
  -3.25229894009790     
   1.86500241510039     
  -5.44920386951793     
 -0.675971061136462     
  -8.86177647373951     
  -9.82993573735108     
 -0.321317933107409     
   8.42823868835580     
  -7.78362631845949     
  -5.60004380346105     
   6.83899445696906     
   8.09120609651127     
 -0.310832752210814     
  -5.80504668155646     
  -4.45839563419122     
   2.58674818041459     
  -4.29867282775825     
   4.82188078383858     
 -0.326024196760639     
 -0.805294159171900     
   2.75445853859310     
   4.76545271169689     
 -0.186169047183067     
  -7.37965901453457     
   2.87444096037059     
  -7.13547552555880     
  -5.23965774779194     
 -0.230405067479176     
  -5.00234551669978     
  -1.25136244403251     
 -0.230632062664733     
  -10.2610089290004     
  1.423047924262525E-002
  -5.52189404269796     
   4.99348936330067     
   4.11246991981187     
 -0.318845794689410     
   2.33033633167941     
  -10.2615889781411     
 -0.333598093123144     
  -7.05214404036740     
   3.72577591688919     
  3.930620378772390E-002
  -5.47596537753708     
   5.22752613740351     
 -0.295622975872646     
   3.39817483067943     
  -3.39182765816000     
   1.77206372575922     
  -3.70297677613171     
   9.71268933308034     
   2.69133169730953     
   2.09513038132624     
  -5.78652765644814     
   4.47123112755798     
  -5.99986000491097     
   4.65359862597784     
 -0.340299505474389     
   4.30350095219298     
   2.95420085971666     
 -0.227296668705096     
  0.951211614449726     
  0.244449598964314     
 -0.227028465058537     
  -9.76461064543543     
   1.44543873281100     
   1.27737694137148     
   1.05669298580402     
   2.97969238186666     
   9.04374670765364     
   6.32816448458314     
  0.630294741898635     
   4.23882815263091     
  -3.47327139338103     
   4.77003702630205     
 -0.220234966629707     
   1.21865004776001     
   1.68267118657147     
 -0.220436738256212     
  -10.2621690272818     
   1.27166819127405     
 -0.336846320430810     
  -10.2810931302743     
  -7.40982637156294     
 -0.331966053447928     
   2.58387429014062     
  -7.74180768739094     
 -0.322026491403610     
  -8.75830381992245     
  -3.73888995004253     
   8.57241229272340     
   7.02750574322893     
  -2.63709484100441     
 -0.342353495107592     
   4.65940531792014     
  -8.03185005712097     
  -8.96453299094678     
  -7.72084258472761     
   3.13083322325421     
 -0.354214008908421     
  -7.37241942303975     
  -10.2728999362759     
  -9.03079268151260     
  -8.93822280656350     
  -7.44195960888638     
   4.63270716026192     
   2.58160707477446     
  -9.65527170931103     
 -0.327039563846035     
  -9.59802183721565     
   3.24705843042087     
  -7.33626793344133     
  -10.2822532285556     
  -8.36905455296999     
 -0.219035913906053     
 -0.207465909418662     
  -9.85750557147577     
  -9.01715335971220     
  -8.41335509046405     
   9.73567378005751     
 -0.207242580727075     
  -8.65942507595731     
  -8.55047919166465     
 -0.192882393759707     
  -8.91354410661001     
  -9.27785304622999     
  -9.02542982323422     
  -6.56998961258237     
  -9.35186260637865     
 -0.218805242520436     
  -5.21168725319108     
 -0.207254683225296     
  -9.32975357996424     
  -9.04346354409493     
  -9.22272856710305     
 -0.206992876511534     
  -8.91189181370772     
  -8.71782060272846     
 -0.192661997825122     
  -8.99508222754597     
  -8.34274436854331     
  -5.32117538167509     
  -8.88542948937710     
  -9.39800412294711     
 -0.310798683809033     
  -6.28517031280244     
  -1.21019134505354     
 -0.301966231414249     
 -0.763981899466620     
  -2.27920585940619     
  -1.47972938335229     
  -9.21885365922694     
 -0.878650967337025     
 -0.325829040782838     
  -4.58819392541888     
  -9.58453103838693     
 -0.315829586723053     
  -5.85065783809254     
  -8.65248364928367     
 -0.315526236315877     
  -8.77131079258151     
  -5.01275856544825     
  -5.72651366107012     
   4.86427289719825     
  -9.61405320327915     
  0.978381602267600     
   5.56078092797089     
  -8.65363867976717     
  -10.2739875283985     
  -8.99084317532952     
  -5.04910365254352     
   9.73799397662015     
  -9.80862734730777     
  -9.17125538553578     
  -4.65913886291098     
  -8.82321466419286     
 -0.918379873958273     
 -0.280833127940379     
   4.83753494637787     
  -3.31759206083183     
  -9.55236660258112     
   8.18259333182716     
  -9.29265954326685     
  -9.57178612112376     
  -4.05016190970837     
  -3.50807993239250     
 -0.283442773668109     
  -8.85883583357153     
   9.14837491395195     
  -7.89703918066870     
   1.20221354377887     
   9.36532091246330     
 -0.256668547272938     
   5.38719349944479     
  -8.74096319651282     
 -0.191891255694941     
  -8.01484703698653     
  -9.54476174130712     
 -0.176860668894197     
  -9.47331724679758     
   1.42824791814842     
 -0.198701799327661     
  -7.76521845171596     
  -9.13731553985841     
 -0.191635354619487     
  -3.81945085206772     
  -4.96997299290858     
 -0.176631632381796     
  -3.48567826504554     
  -5.34418159525973     
 -0.198405606073847     
  -8.98563884051585     
 -1.791263727164523E-002
  -9.60211135502380     
  -7.64596680601588     
  -10.2765252433510     
  -8.55596405810655     
  -8.67994886414979     
  -9.60966991604347     
 -0.325976067011941     
  -7.44905242551917     
  -4.25939138613185     
  -10.0117185255050     
  -8.62907747949676     
  -4.21767296614313     
  -8.51718313734061     
  -7.29519602027889     
  -8.88319650920571     
  -4.93362790581067     
  -8.70625904853246     
  -8.79116862121141     
  -4.57694616266334     
  -3.60790555340138     
  -5.21946667879695     
 -0.167753739695142     
  -5.08544873992812     
 -0.159487419544815     
 -0.156973997463385     
  -8.60105506028504     
  -8.71061559097497     
 -0.167295149409774     
  -8.37495844921068     
  -8.52149635367563     
 -0.156130106071920     
  -8.02414568367394     
  -9.24920125648260     
 -0.165862324060563     
  -8.04672260417035     
  0.352869467883681     
 -0.146536536746569     
  0.604408483047472     
  -8.91941026645126     
 -0.141520391701839     
   2.93031902997161     
  -6.30040465484664     
 -0.142752518004937     
  -5.32475191061644     
   1.97783353455165     
 -0.181303584173379     
  -8.62732849538423     
  -8.35969468295310     
 -0.180975277128474     
  -4.12560399523372     
   9.73857402576080     
  -9.00821576101576     
  -8.26305785160760     
  -8.71834002600997     
  -3.31029100069002     
  -8.59872987886155     
   4.35463727090479     
   9.03105818531416     
   3.23739764150892     
   4.02485026257455     
  -8.57465029380262     
   9.22514748618656     
  -4.00373572707617     
 -0.192932325037701     
  -8.96473462510714     
  -4.70761012118516     
 -0.135414104560707     
   2.35265316884563     
  -4.44838142989481     
 -0.123003580434050     
   4.72664271433622     
   1.45353558815472     
   3.48594924306094     
  -9.37443952687859     
  -6.27327092978243     
 -0.125819447031519     
  -7.66601976346563     
  -8.29812597970747     
 -0.114521956415034     
  -7.07260904720963     
   2.17788718661488     
 -0.118311099043773     
  -8.54811419580835     
  -8.31643418416136     
   1.80306755230650     
  -8.23272513208866     
  -4.74395520827949     
 -0.104681164877756     
 -0.417610476625790     
  -8.29015676390702     
 -0.104056079119022     
   3.71995394011360     
  -8.33711776245319     
 -0.102840714004812     
  -8.40484852394383     
   4.01257620642208     
  -3.73130452739400     
 -0.616580925937212     
   3.86081018799638     
 -9.768182927744536E-002
  -8.11001845685346     
  -8.26380955518671     
 -8.481560002986892E-002
   4.37017297519189     
   3.98892217051998     
 -9.406740823275817E-002
  -5.21326321634000     
   3.30794500736613     
  -3.04863741956418     
  -2.40240521761967     
  -4.36043090408870     
  -3.21370352904938     
   3.02188316828817     
   3.68280595302759     
   1.62830157017462     
  -7.98242126671914     
  -8.48684416507375     
 -7.811657750342742E-002
  -3.00636403855696     
  -4.35261817286553     
 -0.168016315027146     
 -0.159724297231074     
  -8.94918140119695     
 -0.157243657372090     
  -1.23910451957986     
  -10.2816731794150     
 -0.167592498642584     
  -2.21581082926816     
  -1.95471597671478     
 -0.156436074340038     
  -2.27204141619276     
   1.43294630448592     
 -0.166207987524747     
  -1.28218517348825     
  -4.39927747635987     
 -0.146821947299266     
  -2.91726372111597     
 -0.981578734062277     
 -0.141764194576938     
  -2.59480679072903     
 -0.632114500982156     
 -0.143081581895566     
  -1.58280812025109     
 -0.937543695388556     
 -0.181579648299811     
  -3.32561198491853     
  -1.84156172100030     
 -0.181293737303035     
  -3.91717224005008     
  -1.97142570559145     
   1.63927388947369     
  -2.01556832775852     
  -1.62681348849729     
  -1.32620579977655     
   1.60301390035492     
  -2.35985693837712     
  -9.50716572418263     
  -1.71482327419681     
  -1.92743835000534     
 -0.627068761634853     
  -2.96257282122619     
  -2.90363795225898     
 -0.193304672120580     
  -4.14468860667152     
  -2.31620729867015     
 -0.135693138406041     
  -2.14031813149385     
  -1.15650162435461     
 -0.123253352898711     
   4.69744633637619     
  -8.15115973058894     
  -2.61664404228313     
  -1.47353581618546     
  -1.67082439600762     
 -0.126106604121146     
  -8.27486851902384     
  -1.50542504658891     
 -0.114799180874577     
  -7.96076605784241     
  -8.34461084473153     
 -0.118626927265453     
  -7.90005307820482     
  -7.73375052538705     
  -8.98625980215232     
  -4.43312625036556     
  -7.88823104688300     
 -0.104975259997721     
  -8.21077471595557     
  -8.00894355673790     
 -0.104310933760011     
  -8.23739255801176     
 -0.292337058657214     
 -0.103187732460988     
  -2.70448439408794     
   4.46141327101282     
  -5.12618522525237     
  -6.71072401764997     
  -7.95300157997402     
 -9.796016116119828E-002
   4.40553625916041     
 -0.636957912898188     
 -8.507464237746733E-002
  -5.31170915681168     
  -8.00156876316987     
 -9.437269920035560E-002
  -7.95279090155266     
  -2.10028160016755     
  -5.15813891142619     
  -8.08388288371026     
   2.35313548755915     
  -9.13040323238524     
  -7.49790946388226     
  -8.67266676173530     
  -7.68922849351174     
 -0.440680948349676     
  -1.10656790144372     
 -7.845066218244705E-002
  -7.93096837719389     
   1.99825909746403     
  0.705137122575274     
  0.707341752221527     
  0.689444042939219     
  0.683126621195878     
   3.50706489401708     
 -0.815554290265470     
  0.730513115618042     
  -7.38361400890485     
  -7.64206423803179     
  0.705274438474164     
  0.689554051983314     
  0.707444388843887     
  0.683282549962258     
   3.84087303797022     
  -7.02015463767444     
  0.730599144359661     
  -7.35738321062610     
   3.73855778056939     
  -7.85946465919406     
  -1.32393959071437     
   4.67868010807530     
  -8.61313390158391     
  -5.39744208517719     
  -4.49190463604313     
   4.70593666504410     
  0.670701614882523     
   3.61436967634724     
  -8.06929952466543     
  -7.78512628898640     
  0.670584198918358     
  0.739728538859840     
 -0.957499990663822     
 -0.834758838384336     
  -6.66000051556392     
  -3.90708020682646     
  -8.31887572750975     
  -2.66143726225716     
  -7.09355475165647     
 -6.536518683929014E-002
  -8.00553987276943     
 -6.562758346695978E-002
   1.82835522535720     
   4.58552616810872     
  -8.46645637249571     
  0.525212696866850     
  -7.64292961854071     
  -1.96455763652387     
  -4.94214698220896     
 -0.303144773913152     
  -10.0111952314804     
  -9.79406212535901     
 -0.361732482037440     
  -9.34376476029623     
  -7.69464556127868     
  -3.30719212585938     
  -9.95154652758509     
  -9.65046630064504     
 -0.342626504203774     
  -9.42458415537848     
  -6.54408173019063     
  -1.34919458078659     
  -1.79972010355458     
   3.78707014802253     
   4.43127364283462     
  0.370233178141538     
 -0.364137542916184     
 -0.124922786400398     
   2.37794083837270     
   2.72361308127726     
 -0.127407756697738     
  -7.84878245375872     
  -3.35135367454235     
 -5.533491657754847E-002
  -9.07662033722862     
 -4.569781094827623E-002
 -5.565070438971152E-002
 -4.596282026122433E-002
   9.20903734200480     
 -0.308336033147818     
   3.68193597852711     
  -9.57696603797603     
 -3.635328243710637E-002
   6.41500088553718     
 -2.589913787921809E-002
 -3.667530309506604E-002
 -2.616603213505594E-002
   4.10442685008558     
  -5.09041575879313     
  -8.69524368223282     
   5.84367956644975     
  -3.26270202746362     
  -9.37301656253727     
  -7.04640386787691     
 -1.628356289796235E-002
  -5.76190593900795     
 -5.978269934161269E-003
 -1.660718010042938E-002
 -6.246406829526905E-003
  -7.62340613578253     
  0.663456353326134     
  0.650881011500862     
  -4.08857116355203     
  0.663283508151701     
 -0.841742399151311     
  0.650755985646132     
  0.698568089103528     
   3.96009739127113     
  -1.87817635264292     
  0.698358502781437     
  -7.61572959270201     
  -7.87671032507938     
  3.879959762610987E-003
  -7.56271348879266     
  1.404366138074224E-002
  3.555384629180508E-003
  1.377488774809714E-002
  -6.26358704579875     
  2.412621366933330E-002
  -4.58416659052024     
  3.416638688397176E-002
  2.380127311715960E-002
  3.389754922899151E-002
   4.52322177548592     
  4.444001498273051E-002
   2.20317485822726     
  5.434722447698249E-002
  4.411525720360819E-002
  5.407883681555987E-002
  -7.66833537722494     
  -4.78030029563060     
  -8.85284891297764     
  -7.59833775321993     
  -1.49346014563469     
   9.72617547550345     
   4.79599181240687     
 -0.164686450225526     
  -1.44111993972918     
  -2.48358385886903     
 -0.163612088980371     
  -5.12179382633746     
 -2.222834345109528E-002
  6.480989413301130E-002
  -7.68663613743796     
  7.460751000234456E-002
  6.448582402547839E-002
  7.434005373064176E-002
  -7.27691664244539     
  -2.44306822830903     
  -7.54488202030566     
   9.71500952964298     
  -6.63532718229054     
   4.25678678311607     
   3.04695549900965     
 -8.293055037227125E-002
  -7.92660937651457     
   2.55363308953147     
 -9.016571436265133E-002
  -4.03905465767319     
  -6.99388700780958     
  8.523092671691339E-002
  -4.85299044680786     
  9.491387569446358E-002
  8.490801360229945E-002
  9.464780135965636E-002
  -4.81664538179921     
  0.105699520556289     
  -6.68294454093498     
  0.115279408489371     
  0.105378206243763     
  0.115015137787386     
  -6.63376101606153     
  0.126207262063818     
  -6.65885799444938     
  0.135689413798372     
  0.125887964315888     
  0.135427363107681     
  -6.21298565711875     
   3.10334784571204     
  -3.77549118420940     
  -8.20845222097476     
  0.676961075251674     
   3.37494978583354     
  -7.97922968859657     
  -9.92662945824832     
  -4.88933541131517     
  -3.47277420588497     
  0.658319743235082     
   3.34176992360695     
  -3.17005746357499     
  0.678135245884010     
  -3.51464982035184     
  -3.12958453608614     
  0.644086799968078     
  -7.35304768502587     
  -3.86008023430487     
   4.09800650127864     
  -7.53102147204058     
  -1.20023022816405     
  0.676753373478044     
   3.72956334026547     
   3.50236313925104     
  -4.51149680153538     
  -3.95659496075113     
  -7.04900336563338     
  0.658079682997548     
  -7.24000849637441     
   3.86867346346251     
  0.677884355380963     
  -6.94868602992498     
  -7.24659594979524     
  0.643900212462259     
  -7.58678615537079     
   3.58518288711469     
  -6.88073809131935     
   4.68845154376002     
  0.630455683965273     
   2.88178480975203     
  0.630588326220061     
   3.03478373609106     
  0.146435099666516     
  0.155872412864914     
  -2.22139181025822     
  0.146751986014930     
  -3.81917499408598     
  0.156131879925736     
  0.167008546927170     
  0.176360179853959     
   3.13575908109863     
  0.167322652165260     
  -6.86265302247144     
  0.176616681184728     
  0.187924159903742     
  -4.31451564017022     
  0.197138974111714     
  0.187613175132032     
  0.196885739427624     
  -6.02600581155017     