 TITLE="euler solver on unstructured grid" 
 VARIABLES= "X" "Y"  "P" "Rou" "U"  "V"  "nuT"
 ZONE NODES=       11173  ELEMENTS=       18178  ZONETYPE=FEQUADRILATERAL
 DATAPACKING=BLOCK
 VARLOCATION=([3-7]=CELLCENTERED)
 -0.307080597935620     
 -0.302252540302696     
 -0.302449321142098     
 -0.306826751271988     
  -7.78233865720434     
  -8.64451145398269     
 -0.301272883368996     
   8.92148551619699     
   9.03387711475267     
 -0.312183267326968     
   8.31524524480226     
  -9.45236696617088     
 -0.310047721753154     
   8.43651280982265     
   8.86414451569208     
   5.74362535706335     
  -9.30005791134430     
  -10.0567492770071     
 -0.317617617654543     
  -9.26653568180268     
   9.37604057354345     
 -0.314470968439850     
   10.0094862631076     
  -10.1857216771895     
 -0.317931005366586     
  -9.44781704768642     
   9.28206847362378     
 -0.311358246868765     
   9.47483859628726     
  -8.85816825209615     
 -0.307054007149210     
   6.38074830164658     
  -6.79501112695436     
   8.13274959321964     
  -6.79825305673895     
  -7.47050920016041     
 -0.301890229960889     
  -6.28478977562001     
   8.32728933576933     
 -0.311402145495331     
   6.02718324170307     
  -8.37583972647003     
   7.15366597333837     
   5.82542373052794     
   5.90818489837373     
 -0.306774043716803     
   5.05811193370501     
  -7.89651435235489     
 -0.313661302816926     
   5.47305155399901     
  -6.28569965838791     
   6.98310022080096     
   6.00517291206569     
   8.40184249404320     
 -0.306059357151078     
   8.88730281188557     
  -5.88508598203686     
 -0.310777642754245     
   7.24426428468681     
  -8.94711776468921     
 -0.300544797748270     
  -6.45986902783158     
  -5.56778887014453     
  -9.40765081203379     
   6.78283147964084     
  -8.75546078310283     
   6.46691093403467     
   9.16216828886901     
  -6.12064466187262     
  -6.78284351526274     
  -6.72790204507774     
  -9.77463043980580     
 -0.283980424851491     
 -0.283443621392883     
 -0.278690533276985     
 -0.289479280724200     
  -7.85916729715983     
  -7.22724600931609     
 -0.288159255122917     
  -8.36055918658812     
  -7.32283780116721     
 -0.284337727255608     
  -9.31224640680863     
  -6.93175376827361     
 -0.289726183351504     
  -8.85837150649901     
  -9.44741215125702     
 -0.293805519786009     
   9.63997937907022     
  -10.0503602024418     
   7.59139339943764     
   6.65256469493071     
   5.65008588585418     
 -0.297444247093800     
   8.53299523300712     
   6.12790353878190     
 -0.284324026283990     
  -9.97054423672240     
  -8.89706225330137     
 -0.280246075870550     
  -8.39570282212466     
   8.47761599480686     
 -0.278012808047790     
  -8.93250375758655     
   8.31287030152703     
 -0.273604097016012     
   9.05342566511981     
   8.80332817978121     
   9.14944442447858     
   7.89544925320432     
   6.81733480475332     
   5.19951261328586     
  -9.59864946524839     
  -7.89461475342513     
  -5.89312328596403     
  -7.89980158953313     
  -7.86372458314087     
 -0.287863875717992     
  -8.43110198724101     
   7.69180236806678     
 -0.286650436389678     
 -0.281257566176610     
 -0.285769481157062     
 -0.291953260135890     
  -7.58263677520092     
  -8.69512298129241     
 -0.290992287853017     
  -7.19400150465780     
   8.14811564294936     
 -0.287382764234791     
  -7.09521103686209     
   7.62361524926108     
 -0.292882708610750     
   7.83273560915735     
   7.56594935351310     
 -0.288981675159220     
  -7.31221051389402     
   5.87151460544688     
 -0.298204985828307     
   7.03544262403220     
   7.73070340298872     
  -8.83859738247414     
   5.58818861032090     
  -8.08396374106692     
 -0.300147001482801     
   7.18173933223744     
   5.27291194818351     
 -0.283092496258232     
  -8.19724696515340     
   7.43422742492176     
   6.31474577950864     
  -7.81783140509544     
   9.41671251474923     
 -0.276392521066690     
   8.06608668314644     
   8.82849007936565     
 -0.281159235556517     
   8.31123927676225     
   7.00611023940616     
   7.14851112925826     
   5.08107847304383     
   6.98380667545590     
  -9.46300277514054     
  -7.39318387456422     
  -7.35794225547829     
 -0.289923806611371     
  -9.51208869867797     
  -5.40968788215208     
 -0.296623112911732     
   6.63668287507916     
 -0.293665814173600     
  -7.71179428080613     
  -6.13575577444785     
  -5.71959074754261     
 -0.296895367516575     
  -5.20512490968617     
  -9.06803474010575     
 -0.294453882965533     
 -0.291900236334171     
   7.60705092755467     
  -8.96792965775430     
  -7.59942107061945     
   7.76444028223866     
 -0.295453790716058     
   5.13231234655092     
   8.72824178656556     
 -0.306969234810536     
 -0.299473146174521     
  -8.46743302126918     
   9.52968519714194     
   8.45663338609441     
   5.33796519426799     
 -0.304789374455603     
  -6.75779573067526     
   5.50223124339889     
  -10.0926757122354     
  -6.80708600018580     
   4.85929901753258     
   7.40097867242090     
   6.90788715306700     
  -7.17444940889088     
  -8.33114147701849     
   6.73664821401479     
 -0.298381071557547     
 -0.302526307810795     
  -5.42575246990561     
  -6.53968816074779     
 -0.305284472335914     
   6.30096184923875     
  -9.54833529156218     
  -8.35507491757327     
  -10.1167021557160     
   6.44712933492412     
  -8.28935327598663     
  -5.82698040301659     
  -9.93372491811592     
 -0.298563972879174     
  -10.0433684503233     
  -7.11554953260630     
 -0.305084696973421     
  -9.17683385584042     
  -1.91419295844886     
   6.61652664036829     
   6.01989122975565     
   5.19436665550286     
   6.23875320037238     
   4.70207111072353     
  -1.34920266940175     
   4.82930788515559     
  -1.76556928652586     
  -6.55061550669937     
  -7.87588912069881     
  -6.69027204554269     
   9.97355982787931     
 -0.275991142808217     
 -0.271117362477335     
   6.56633170799227     
   7.81365910867698     
   9.04127029838819     
   6.03629560656884     
 -0.271676459541989     
  -9.97292092814106     
   7.47802891734398     
 -0.277936404648631     
  -7.93025838465426     
  -9.30604190415897     
 -0.272195807724439     
  -5.95443526409690     
  -7.77590622931885     
 -0.267407528191849     
  -7.36314791651838     
   5.65671776989851     
 -0.264088210713487     
   7.97791037297354     
  -10.1046511906448     
 -0.258854894147286     
   8.13913656200572     
   6.61871216301289     
 -0.278936420166974     
   4.71185250910209     
   8.19386579220658     
 -0.265318409181320     
  -8.41729159613512     
   8.77714737206428     
  -10.4833756907703     
   7.51648229458324     
   5.41482249891112     
   8.08270881301226     
   5.27379865428957     
   6.48754792775662     
  -9.46879348327294     
  -10.5312776044080     
  -8.91339925107319     
  -6.69917861548645     
  -9.38952012313482     
  -5.89687838182371     
 -0.272831455698311     
   4.86394558403282     
 -0.268121601208034     
  -6.78106665818325     
   1.84748289861508     
  0.462741661876638     
 -0.268344095344920     
  9.091197239211690E-002
   9.83284795723769     
 -0.274405582194935     
  0.104722160312442     
   1.51531512864459     
 -0.268509956668731     
  -3.93292756661136     
   4.56832401250206     
 -0.263919227390793     
   9.36682505992761     
  -5.02005247995140     
 -0.260100379582715     
   9.00999458939939     
   8.91783643897417     
 -0.270554918447754     
  -9.96494078473522     
   1.35958148090146     
 -0.255466551048377     
   1.79757351343219     
  -9.88910687035259     
 -0.262123957791006     
  -9.89040139568179     
  -4.68057428022978     
  -3.37385549618814     
  -4.43822738844708     
  -9.77467390667404     
  -8.48210853544124     
   3.40309959847664     
  -4.09467894916174     
  -7.21422891281116     
  -5.21669790933698     
   9.30150578113669     
  -2.37207485696641     
  -10.0221791973762     
  -5.20243598309249     
 -0.301889316981943     
   6.75453142085378     
   6.91253156366541     
 -0.309306343594845     
  -9.48293242225772     
   5.08278961225662     
 -0.304624455798173     
   8.82387525700001     
   1.45755703733189     
  -6.60729379879754     
  0.870080850565971     
  -5.10104472816541     
   5.46811950638142     
  -9.55327096800992     
  -9.87544982880191     
   4.37628214541052     
   7.61236553080988     
   5.63954648448504     
  -10.0409870415591     
   7.59035115988486     
  -9.46642165185686     
 -0.296775514346368     
   6.07719429225052     
   7.98340315667870     
  -10.1099383867872     
  0.515710695222461     
  -9.01681547058743     
  -10.5552285612269     
 -0.265262014311802     
  0.790010353691266     
 -0.303446711994587     
  -10.1166266690542     
  -1.08794815484191     
 -0.297451374880750     
   3.51987048386843     
  -4.10054008795164     
  -6.08909790083923     
   5.06800317148301     
  -3.42016999226759     
   9.60082306651241     
  -3.79243281112863     
   7.19543751676170     
 -0.246087587128035     
  -10.4714002123609     
  -3.80244186621807     
 -0.257661275181008     
 -0.251551184386562     
   2.27645242241049     
 -0.251599210001533     
  -9.48599709165832     
   6.42248719283557     
 -0.257588724367405     
   9.88973147901330     
   6.99830042481900     
 -0.253070166920822     
 -0.220157333300227     
  -9.92699775540512     
 -0.245952440713378     
   7.20175799723694     
  -7.74750029535621     
 -0.243181102454278     
   6.81212259503626     
   9.53088072567817     
 -0.245428195987898     
  -7.06863845958399     
  -6.01060965210065     
 -0.233517065687018     
  -7.45827386178468     
   9.54693341411610     
 -0.255213985821701     
   9.53495793570667     
   9.30867102404541     
 -0.259839007291600     
   1.43825862225322     
  -8.23754466618605     
   5.30393156243608     
  -10.0807002338259     
  -8.62718006838674     
   6.52289616146472     
 -0.570771456428649     
  -10.0687247554165     
   4.91587596348948     
  -1.84402467584436     
  -3.89498259464655     
  -7.84790926398536     
  -1.04617056298907     
  -5.68619551076959     
   5.14743778163170     
  0.946853393360684     
  -5.62312314218129     
  -2.09151042539058     
   5.23692476637357     
   5.84187138258306     
 -0.266103148114265     
  -6.20710102807658     
   2.92271226608420     
 -0.253892283416264     
  -9.91953904691576     
 -0.247970622630044     
 -0.247672915200540     
   4.32658372204468     
   8.93330966052216     
 -0.253543651889414     
   4.22844546180944     
   6.48891782536379     
   3.32013333573248     
  -9.99687188495992     
  -8.52677109975759     
 -0.248766498656359     
  -8.13713569755691     
  -5.95620414968935     
 -0.241879539761371     
  -5.59235629574547     
  -7.35786489315552     
 -0.239407373365307     
  -4.50517602480158     
  -10.5432530828174     
 -0.240955139339226     
   6.20797890720564     
   9.41374880186865     
 -0.229548467940272     
  -8.72092628621679     
   9.11874786695157     
 -0.250381347523826     
   6.10248376277542     
  -9.06050076055427     
 -0.255464203684872     
   4.79046846657004     
   5.78370576861713     
   3.56559879207734     
  -9.40645087278812     
   8.84675244075760     
   8.66326399957918     
   9.04852161964699     
   9.01787829357724     
  -8.91640650195828     
   9.25713046390491     
   7.98102880163833     
   3.85288243260209     
  -9.59324926861551     
  -9.98489640655049     
   1.49610847512918     
   9.53655564263815     
  -9.92046991001155     
 -0.261381976020022     
   9.33670876709548     
   8.86601144971555     
   7.30216696586610     
  -8.15723361621625     
   5.01834997728845     
  -9.60146111796194     
  -6.03612555717027     
   5.45178178038924     
 -0.322171760013611     
   4.98534460189900     
   1.16525457063367     
 -0.306223062871248     
  -5.79932328435278     
   5.25358098623351     
   5.64321638843420     
   7.31326811805535     
   5.74869722969526     
   9.54545022678508     
   9.93763339265102     
  -3.64678593119796     
 -0.874261744539356     
   3.13666487793666     
 -8.697965163120353E-003
  -5.73003928823135     
   3.41480176027972     
  -3.79241475654394     
  -5.05659697849823     
  -1.03314467327202     
   2.89534932823187     
 -0.325129817521533     
   5.43608058807122     
  -9.51483460426283     
  -4.52186497235810     
  -1.71495410054939     
  -6.67135829035516     
 -0.241258429991846     
   9.04557568748346     
  -9.02712072057998     
 -0.246363353091466     
   4.62417450306147     
  -6.96822949095484     
 -0.315276796409592     
   4.92227299996994     
  0.615243037439038     
 -0.249858916204925     
  -2.76638634962684     
   8.75776768457992     
 -0.255735117064592     
  -6.57859408875415     
  -9.79608627498880     
   2.82338309091685     
   3.03659519423588     
  -5.54032077936939     
   5.19177567667712     
   3.69955159168865     
  -10.5073266475891     
   9.33952192184854     
  -4.04770986850058     
  -6.09717201747084     
  -3.36981944836401     
   2.12464620927903     
  -5.66602986583920     
 -0.833081172244485     
  -9.02126476761570     
  -9.86871426773145     
 -0.320426251492829     
   8.57271254967917     
  -7.50083763714507     
  -5.41814465332508     
   6.59167125084721     
   8.23237949236963     
 -0.312354183274441     
  -5.77053543846776     
  -4.33455719868236     
   2.66576658056059     
  -4.18421481953326     
   4.58181997553253     
 -0.326623415169875     
 -0.637079432485093     
   2.50911349588540     
   4.50703972412257     
 -0.427475635706900     
  -7.22544423989164     
   2.77041027909474     
  -7.40761360760637     
  -5.37072405184911     
 -0.228066789043588     
  -5.14089861034886     
  -1.42438809780041     
 -0.232753247057451     
  -10.0208228417788     
 -0.213825677149044     
  -5.71686114856451     
   5.14705909239034     
   4.23303708564108     
 -0.319881190126723     
   2.41588158308824     
  -10.0327983201882     
 -0.332965852230451     
  -7.18171081851128     
   4.00539665198657     
 -0.227877991375660     
  -5.65536885333285     
   5.23495708462082     
 -0.297516450069628     
   3.66955719988417     
  -3.61295166124677     
   1.50126431862903     
  -3.93036603986483     
   9.42717863002179     
   2.78014393022073     
   1.82175993632435     
  -5.65221554872765     
   4.66941408922111     
  -6.28936765518262     
   4.92950962264395     
 -0.340455650490680     
   4.57012980753829     
   2.71805200086597     
 -0.229824216411137     
  0.727867350400090     
  7.150507657863653E-003
 -0.224286983867279     
  -9.49852481177752     
   1.23351911845896     
   1.50333108750163     
  0.845059295656734     
   3.13576499261391     
   9.17730612983666     
   6.03285179063488     
  0.414723815188401     
   4.52021952532857     
  -3.31208563151187     
   4.97623000591301     
 -0.218149249370180     
   1.01801804120932     
   1.90051565724584     
 -0.222314951183144     
  -10.0447737985976     
   1.04854455201900     
 -0.335866903372365     
  -10.4354737771326     
  -7.26754189399783     
 -0.331731558153294     
   2.75643756668657     
  -7.88292058742035     
 -0.324080541909236     
  -8.90268322078371     
  -3.95539990681850     
   8.86070857466885     
   7.19195970321472     
  -2.91769621303702     
 -0.343353305455734     
   4.91939047631066     
  -7.90157436493756     
  -8.85226470047189     
  -7.58456201812201     
   2.88491495088339     
 -0.353481293571029     
  -7.50879001987885     
  -10.2663201469415     
  -9.15727326727404     
  -8.83690426064935     
  -7.58703491433971     
   4.88219307399558     
   2.76551356865767     
  -9.77853786924524     
 -0.325724250403523     
  -9.59633865082546     
   3.41236838940111     
  -7.38060721334893     
  -10.4594247339514     
  -8.23383158346107     
 -0.221198670209178     
 -0.209443102748892     
  -9.85133327911599     
  -8.88298558011583     
  -8.36426615262953     
   9.90170695742273     
 -0.209597850720682     
  -8.63359494668720     
  -8.51332854608009     
 -0.194956529022029     
  -8.87953961826138     
  -9.36511184937404     
  -9.00184385915867     
  -6.71600295716750     
  -9.45042276964677     
 -0.216436314738771     
  -5.00027370940387     
 -0.205082205471682     
  -9.29768689565094     
  -8.89834601993783     
  -9.13838384030124     
 -0.204442550536029     
  -8.82154210478835     
  -8.85047933500841     
 -0.190406316684599     
  -9.00050767121711     
  -8.21847114359520     
  -5.09977617811758     
  -8.80604970668637     
  -9.40473083470471     
 -0.309038076515113     
  -6.22400599753060     
  -1.49424908591084     
 -0.299871373823633     
 -0.504816185246324     
  -2.55980035123694     
  -1.20893503482790     
  -9.24511615179907     
  -1.15512870850371     
 -0.323898579843100     
  -4.48118327384500     
  -9.61383535250295     
 -0.314266611484097     
  -5.78646135379954     
  -8.75212348274863     
 -0.314319493657467     
  -8.75589918758448     
  -5.24321880654347     
  -5.49724694611929     
   4.86969712992207     
  -9.70623917359011     
  0.725406534558672     
   5.29772184124857     
  -8.53536792205563     
  -10.2887741686246     
  -8.86762514029389     
  -5.26863444847642     
   9.94960887106045     
  -9.68681753913006     
  -9.22795410694240     
  -4.89461809733609     
  -8.87817042980203     
  -1.14775201795722     
 -0.283146820891392     
   4.97849518289596     
  -3.45116486751945     
  -9.51211753992305     
   8.47107317246817     
  -9.35901913030825     
  -9.64211272085745     
  -4.27290223663460     
  -3.61450196226158     
 -0.280993005323964     
  -8.79042706634331     
   9.12904598457649     
  -7.89573118321852     
  0.939765067622556     
   9.33522190053653     
 -0.528996259918825     
   5.30605270839517     
  -8.75456299930414     
 -0.194314626409068     
  -7.99421155401049     
  -9.53450462719618     
 -0.179027225317201     
  -9.45200035261491     
   1.17547341786855     
 -0.201517755127279     
  -7.61719150745907     
  -9.12414810005594     
 -0.189031388163852     
  -3.66320197162729     
  -5.21154605812355     
 -0.174298622829989     
  -3.75672110740619     
  -5.58278828617194     
 -0.195402659582037     
  -9.09024747013910     
  0.267648585123480     
  -9.68409230188823     
  -7.73125836032262     
  -10.3411668858851     
  -8.62001257550959     
  -8.55072836187752     
  -9.49819294937286     
 -0.327425517016434     
  -7.57430490798750     
  -4.51086301015635     
  -10.1287322200854     
  -8.63225875790111     
  -4.48111446703575     
  -8.50994556181145     
  -7.41099835584201     
  -8.87820342848176     
  -5.18613041618784     
  -8.56608880169944     
  -8.74668625804436     
  -4.83442675146156     
  -3.85748737621386     
  -5.48752059276785     
 -0.165095457109925     
  -5.29405009068429     
 -0.157085458656659     
 -0.154251198718801     
  -8.50470036924932     
  -8.75322680152038     
 -0.164295497030656     
  -8.38631408672799     
  -8.45802681451261     
 -0.153051045902479     
  -8.13635277478349     
  -9.24645234095321     
 -0.162388753304915     
  -8.16986567334897     
  9.306696538319020E-002
 -0.143663933463762     
  0.350883161666330     
  -8.86458849109022     
 -0.139058864691854     
   2.67520306085116     
  -6.15053493318170     
 -0.139452887665253     
  -5.55155977437391     
   1.71469473750661     
 -0.178506420121305     
  -8.52000748223342     
  -8.47665960561329     
 -0.177761809206901     
  -4.32649252844516     
   9.96158434946988     
  -9.12376036870806     
  -8.26399436832792     
  -8.56637242399267     
  -3.02870122200677     
  -8.63092256509084     
   4.16564658326930     
   9.03240933317537     
   2.95954407533564     
   4.27355745838546     
  -8.48926301411827     
   9.30339016599022     
  -4.23763062402960     
 -0.189183893011198     
  -8.99917147666592     
  -4.93182368239108     
 -0.132609377339627     
   2.08892737935399     
  -4.35435480034821     
 -0.120492133083957     
   4.96589750111827     
   1.21972870404860     
   3.21894169640268     
  -9.48393566821575     
  -6.13439953522930     
 -0.122939442733350     
  -7.76253304494149     
  -8.38152581525578     
 -0.111744840614011     
  -6.93527250688124     
   1.92393870143283     
 -0.115152992352290     
  -8.47369541670442     
  -8.20311070377400     
   1.54970605957390     
  -8.26267365297760     
  -4.95723932432319     
 -0.101742961601373     
 -0.644826686752958     
  -8.18779068813835     
 -0.101503631336759     
   3.96235286181371     
  -8.44314670704426     
 -9.938350883216736E-002
  -8.54368540274222     
   4.28301875101968     
  -3.82617305556084     
 -0.834416031858802     
   3.59324784835154     
 -9.490176490518967E-002
  -7.96652032960845     
  -8.17240837588744     
 -8.223107619335347E-002
   4.61369153419585     
   4.24873251750709     
 -9.102422542109466E-002
  -5.46183613554136     
   3.05225927988034     
  -3.27433419610433     
  -2.62632069740120     
  -4.58948007966700     
  -3.47968436309851     
   3.28626857665515     
   3.42656543261354     
   1.38471738175497     
  -8.07241618051621     
  -8.50861832694748     
 -7.479806360765369E-002
  -3.24303733026108     
  -4.48671836618795     
 -0.170516489568805     
 -0.161975947097415     
  -9.01694458416637     
 -0.159818496708268     
  -1.50944968762515     
  -10.4474492555420     
 -0.170434458487479     
  -2.48667601606051     
  -2.23739085746724     
 -0.159367952750498     
  -2.52874852832470     
   1.16043499887135     
 -0.169525192378941     
  -1.54141820578486     
  -4.61728739373545     
 -0.149556413379779     
  -3.17592185082008     
  -1.23438053463791     
 -0.144092328000816     
  -2.85920003233706     
 -0.878155372619605     
 -0.146246618129309     
  -1.84847204846151     
  -1.20125400032553     
 -0.184205937203494     
  -3.41903926214613     
  -2.11215502923358     
 -0.184336619300378     
  -4.02441448263585     
  -2.22170284732316     
   1.41667099805718     
  -2.25492800179909     
  -1.88156882858910     
  -1.57453029437187     
   1.34046209576066     
  -2.59471340368910     
  -9.41783750296552     
  -1.94773786535654     
  -2.18862415801572     
 -0.862973231175680     
  -3.21023323158317     
  -3.17360194813851     
 -0.196871232133450     
  -4.24103480079167     
  -2.56199658130575     
 -0.138370206131652     
  -2.34697325416162     
  -1.36569587726513     
 -0.125648842314515     
   4.80108024715979     
  -8.14167751501667     
  -2.86887231380268     
  -1.67832757116627     
  -1.91467126543162     
 -0.128867981000018     
  -8.34700215028244     
  -1.69947521785322     
 -0.117468313501242     
  -8.03951700589963     
  -8.38497788994678     
 -0.121673464127354     
  -7.82456351529772     
  -7.86307174108402     
  -9.12272479967276     
  -4.64025153463900     
  -7.94668342303696     
 -0.107814739857021     
  -8.14129516491925     
  -8.01805455840900     
 -0.106765265285971     
  -8.15696376703573     
 -0.554093463081067     
 -0.106547922565940     
  -2.93477420159577     
   4.67150255717882     
  -5.30293478998842     
  -6.56719554248938     
  -7.85559416112478     
 -0.100648101259979     
   4.63771996644435     
 -0.894237016021280     
 -8.757916797271996E-002
  -5.47925184881413     
  -8.10283987621047     
 -9.732714897494520E-002
  -7.99186821074845     
  -2.31783279088529     
  -5.34488137177862     
  -8.13373791456812     
   2.59424816404696     
  -9.08741402569301     
  -7.45466531351788     
  -8.78345353787701     
  -7.66688269641338     
 -0.648906062095994     
  -1.30540958199886     
 -8.169545139788149E-002
  -7.88095607869317     
   2.23422328349869     
  0.703456225442574     
  0.706000473205470     
  0.688038771969781     
  0.681273253298382     
   3.26058703174293     
  -1.02400797694225     
  0.729324065654543     
  -7.25228070946638     
  -7.53864037335495     
  0.706291198321863     
  0.690309977700574     
  0.708119470664365     
  0.684492500504000     
   3.95926210976252     
  -6.90471942773370     
  0.731100182996379     
  -7.23700073346716     
   3.86866339227801     
  -8.03574028482304     
  -1.56074009677323     
   4.90670973886318     
  -8.68986194828113     
  -5.60239105855479     
  -4.20545163733309     
   4.49522107472762     
  0.671539176410995     
   3.73007698785558     
  -8.20337857191311     
  -7.77339928813644     
  0.669115050168546     
  0.496841442210649     
  -1.19903067251806     
  -1.12669864134122     
  -6.53837389156514     
  -4.16321056414791     
  -8.41357400083536     
  -2.90268661559294     
  -6.94745730048956     
 -6.275687259251492E-002
  -7.88621392514827     
 -6.817421558829828E-002
   1.59396134880623     
   4.31705515592345     
  -8.51838455607121     
  0.297335441924528     
  -7.64979623102039     
  -2.13296035894893     
  -5.20643854501253     
 -0.305552882088305     
  -10.0870101024168     
  -9.89777877848197     
 -0.362015126942836     
  -9.46406719953911     
  -7.56931714643454     
  -3.55030486753611     
  -9.90753843799630     
  -9.76584755041596     
 -0.341145128415472     
  -9.29527663897631     
  -6.54342264358669     
  -1.57476264705788     
  -2.01087992733342     
   4.00705791143141     
   4.54274571040560     
  9.739939751328563E-002
 -0.615603223721848     
 -0.128919780328445     
   2.13318266505667     
   2.98032119386100     
 -0.123349580484723     
  -7.81633520262029     
  -3.58339647445818     
 -5.220686117561308E-002
  -9.12147571310360     
 -4.307309317712915E-002
 -5.872649867083719E-002
 -4.854437669958446E-002
   9.22189361465696     
 -0.305649439168701     
   3.93557625803013     
  -9.59441919108536     
 -3.317293959281782E-002
   6.13242951403698     
 -2.326522705839676E-002
 -3.982125809976061E-002
 -2.877542640935187E-002
   3.88557300766678     
  -5.36802342876091     
  -8.81696643644364     
   6.13326075926404     
  -3.51682983229108     
  -9.40985456688166     
  -6.92001819146023     
 -1.309698758635528E-002
  -5.90324170708927     
 -3.341532980497708E-003
 -1.977826775626285E-002
 -8.877387404088031E-003
  -7.69750819636667     
  0.664841810372418     
  0.651802658521670     
  -4.30038736659804     
  0.661273313309840     
  -1.03085842045682     
  0.649221421314366     
  0.700297922766956     
   4.06989019911628     
  -2.06756531690264     
  0.695970881660998     
  -7.52326542654945     
  -7.81352853735608     
  7.066450239132441E-003
  -7.49216315802000     
  1.667722507078754E-002
  3.653929835153876E-004
  1.112822480659833E-002
  -6.38978870278403     
  2.730676007747774E-002
  -4.74746599057174     
  3.679110404120860E-002
  2.059815852265710E-002
  3.124078199574496E-002
   4.32336992447353     
  4.760920060071964E-002
   1.96819398920936     
  5.695801853411508E-002
  4.090437251020971E-002
  5.141698688795734E-002
  -7.55395670694119     
  -4.98265496649818     
  -8.87686724022023     
  -7.66128255363337     
  -1.67522241674745     
   9.70560850103350     
   4.91018345022256     
 -0.169262009255023     
  -1.65632744483321     
  -2.68566800800703     
 -0.159350879068773     
  -5.31946573189919     
 -0.276250277965887     
  6.796273291166589E-002
  -7.73585177849391     
  7.719961477063089E-002
  6.127210223253808E-002
  7.167781224955677E-002
  -7.28153911315533     
  -2.65607104780965     
  -7.48858860915627     
   9.47508054365952     
  -6.50256035115970     
   4.00919933543727     
   3.32754401752249     
 -8.735707282682242E-002
  -7.84016417105152     
   2.29909620117623     
 -8.565332997928779E-002
  -4.16661499477413     
  -6.88940190918795     
  8.836278440253315E-002
  -5.03348622652038     
  9.748284372854767E-002
  8.169604056806995E-002
  9.198957216165683E-002
  -5.00807060749645     
  0.108806034839972     
  -6.57245695495824     
  0.117821069588740     
  0.102172299277637     
  0.112365035152979     
  -6.76157643976430     
  0.129284310809989     
  -6.76631176030858     
  0.138199656915532     
  0.122692208488867     
  0.132789456005692     
  -6.32613630376082     
   3.33351959299913     
  -3.98112360240737     
  -8.26868973964393     
  0.678682571254874     
   3.62241999790656     
  -7.87085348553429     
  -9.93207468990319     
  -5.05890174387311     
  -3.67206062364522     
  0.660367875884678     
   3.60017684032671     
  -3.36299787509317     
  0.680280434002070     
  -3.70298741176304     
  -3.33344373299220     
  0.645616369382826     
  -7.45573911302565     
  -4.04374830693033     
   4.32399489365399     
  -7.52746920725115     
  -1.38935363305391     
  0.674394437834192     
   3.51126393543032     
   3.70540010337235     
  -4.69667534659611     
  -4.20162715711544     
  -7.09246152993268     
  0.655411681676240     
  -7.29551348527244     
   4.06608234593025     
  0.675100642167630     
  -7.01349031211643     
  -7.28023050253872     
  0.641764153267381     
  -7.62361929909918     
   3.77314045379601     
  -6.88211663446645     
   4.85143526040461     
  0.628855862406366     
   2.99184308675375     
  0.631594344971107     
   3.28702058528026     
  0.143253355861111     
  0.153250257682026     
  -2.40620970930871     
  0.149795673326430     
  -4.01381199507128     
  0.158607117932357     
  0.163844434441024     
  0.173757509864284     
   3.35482627483566     
  0.170329334138932     
  -6.81584345883677     
  0.179053140757080     
  0.190890488505634     
  -4.46060950061228     
  0.199533681676851     
  0.184470012793807     
  0.194305492754116     
  -6.16079461671594     