 TITLE="euler solver on unstructured grid" 
 VARIABLES= "X" "Y"  "P" "Rou" "U"  "V"  "nuT"
 ZONE NODES=       11173  ELEMENTS=       18178  ZONETYPE=FEQUADRILATERAL
 DATAPACKING=BLOCK
 VARLOCATION=([3-7]=CELLCENTERED)
 -0.306908762787407     
 -0.301921555898663     
 -0.302468245237662     
 -0.306385488783313     
  -7.45632657447304     
  -9.08660019677517     
 -0.300588595266264     
   9.46360954907930     
   9.42307965619670     
 -0.311876244694213     
   8.72383017341576     
  -9.89946802822358     
 -0.309366459940507     
   8.80412482558952     
   8.44016952524764     
   5.15062522363482     
  -9.63298010198633     
  -10.4656955969373     
 -0.317066949101845     
  -9.67873477659286     
   8.95820417005615     
 -0.313369801820980     
   9.45563071680240     
  -9.59299948340040     
 -0.317979804549559     
  -8.92050360469767     
   8.90445756946486     
 -0.311352826074031     
   9.02495857320493     
  -9.33993869049674     
 -0.307214860697226     
   5.85958330660812     
  -6.45320132480436     
   8.69339813868260     
  -6.37612358952102     
  -7.10058732491643     
 -0.302259015261532     
  -5.89885066501655     
   8.83599119375673     
 -0.311655646835913     
   5.54366963680443     
  -7.85121939845514     
   6.58677837326779     
   5.28898873552083     
   6.32900844479366     
 -0.307267816328992     
   5.52549663605182     
  -7.34162075206912     
 -0.314252517149286     
   5.91745866312198     
  -6.81887206138964     
   6.45535431835118     
   6.47050477563428     
   8.87435288447881     
 -0.306918548532414     
   9.32606406010052     
  -6.45122933206358     
 -0.311864607078211     
   7.73176998535720     
  -9.47282268522379     
 -0.301266741268003     
  -5.93856689409920     
  -6.09193038971160     
  -9.09758988257031     
   7.24449879240412     
  -8.19759911887522     
   5.90291750428599     
   8.60026616064123     
  -5.69060085247273     
  -7.29914812214334     
  -7.28839994405923     
  -9.42516376078204     
 -0.286576719966116     
 -0.285707523117854     
 -0.281187047214054     
 -0.291886604592283     
  -7.39176639130416     
  -6.69932125360874     
 -0.290913247159643     
  -7.87267732849961     
  -6.84040572092895     
 -0.287296220344254     
  -8.81946441077907     
  -6.54412471350478     
 -0.292792681853081     
  -8.34700339872837     
  -8.98544683352608     
 -0.296562801343842     
   9.04722303847146     
  -9.60831513864136     
   8.18522789800324     
   6.19464187372220     
   6.03958322447995     
 -0.300627037741785     
   8.14105418773132     
   5.68493585330563     
 -0.287898007332074     
  -9.47987468815751     
  -8.42419072631964     
 -0.283012501728410     
  -7.94331641732575     
   7.99221209926832     
 -0.281068821887110     
  -8.49510657055902     
   7.86198398285283     
 -0.276314098130720     
   9.54280991422563     
   8.34188376611340     
   8.66288541959947     
   7.41972204745106     
   6.32489269404359     
   4.80016183643664     
  -10.0936539375708     
  -7.46269137326674     
  -6.22609903256842     
  -8.43293712183888     
  -7.35688986909825     
 -0.289871236897590     
  -8.01420882571369     
   7.09892413105314     
 -0.284089845349075     
 -0.278796087898754     
 -0.283541194797694     
 -0.289582316197263     
  -8.00759947087128     
  -9.09285189925660     
 -0.288274533024904     
  -7.64462224269925     
   7.73174702369387     
 -0.284460043397760     
  -7.50992211648936     
   8.04270546673509     
 -0.289852663642300     
   8.31184902957653     
   7.15925701128250     
 -0.285602462196276     
  -7.79978528698140     
   5.46121482415466     
 -0.295535206978425     
   7.46272696682621     
   7.28949376306538     
  -9.20105828419353     
   5.21088615833534     
  -8.49867935808661     
 -0.296894933302364     
   7.57105142777441     
   4.76066007287906     
 -0.280361318199683     
  -8.57443047083249     
   7.88742694920702     
   5.93030599340301     
  -8.27567494398392     
   9.08837612972295     
 -0.273716932952219     
   7.55296875860667     
   8.49706153490008     
 -0.278138208819002     
   7.74891789506424     
   7.52396562998743     
   6.71697930142932     
   5.46513144950452     
   6.58679241732303     
  -9.04010374514159     
  -6.98173774847868     
  -6.91100173735819     
 -0.287952597304340     
  -9.88805330794109     
  -6.00338587254651     
 -0.294702623794127     
   7.03804655616111     
 -0.291979106381008     
  -8.06885578061088     
  -6.60356499633878     
  -6.20792522450009     
 -0.295521761304670     
  -5.69628084231236     
  -8.70058168174899     
 -0.296342506920678     
 -0.293623582687753     
   7.06485481108627     
  -8.56600532720600     
  -7.99398389215252     
   8.13996956738859     
 -0.296864459904449     
   5.55262731237974     
   8.20592870538545     
 -0.306020425729418     
 -0.298437228138811     
  -8.08600322424890     
   9.00774231827631     
   8.09796485529285     
   4.78399455526207     
 -0.303528866825247     
  -6.29725173209831     
   6.00544193341549     
  -10.4322333670659     
  -6.24068701919908     
   5.36468678793890     
   7.02880711301166     
   6.59537556485420     
  -7.51158251974665     
  -8.80889502508507     
   7.10610084408552     
 -0.299454397018431     
 -0.303865769124320     
  -5.84449368083426     
  -6.89322533986729     
 -0.306389451064825     
   5.99219850340290     
  -9.26766136150871     
  -8.87170313104861     
  -9.84071732540820     
   6.78899573929927     
  -8.85041322183790     
  -5.31260098410771     
  -9.62691502718374     
 -0.300174673156206     
  -9.64450064457521     
  -7.48992809909317     
 -0.306928187892848     
  -9.74320311382355     
  -1.59544907521194     
   6.28509912906456     
   6.33256819597842     
   4.84747487373590     
   6.61417958811231     
   4.32533972871612     
  -1.02243936156644     
   5.37605297424947     
  -1.42122418948256     
  -6.94951021003265     
  -8.37472494171654     
  -7.00566187821904     
   9.48909294667376     
 -0.272956987429927     
 -0.268241211255971     
   6.14448057077480     
   7.46674366238016     
   9.39924504355033     
   5.68921033099353     
 -0.268475273694443     
  -10.5437741333038     
   6.97746108958873     
 -0.274543952173976     
  -7.53382667058968     
  -9.89998368738316     
 -0.268653279341596     
  -5.39726179156651     
  -8.09574821687130     
 -0.264055481627145     
  -7.89119106618537     
   5.34203372258935     
 -0.260253541973712     
   8.31373000852876     
  -10.4210792904421     
 -0.255598845213121     
   8.44362107701312     
   6.93132615690236     
 -0.275023166728666     
   5.03129018320266     
   7.87463101272842     
 -0.262250012894077     
  -8.75139367519235     
   9.10021195786706     
  -10.0683316214740     
   7.20267125188440     
   5.97956439518076     
   8.52884045828960     
   4.80217686383014     
   7.01844654567550     
  -9.59504513770408     
  -10.0237153149789     
  -9.22162022290396     
  -7.17824613563324     
  -9.48974617292160     
  -6.28126441880245     
 -0.275899950619049     
   5.45760942761758     
 -0.271031492328836     
  -6.28634791243646     
   1.27700189199579     
   1.03511228845672     
 -0.271579069995657     
  0.684277169764500     
   9.62015334637995     
 -0.277832594418322     
  0.677384069347616     
  0.961322101707068     
 -0.272086316727965     
  -3.35544968783545     
   4.94718714466339     
 -0.267304518792219     
   9.30377647290151     
  -5.61372609106285     
 -0.263967846527951     
   8.92382830849819     
   9.04448353201122     
 -0.274496542617769     
  -9.99137674888414     
   1.03432997452094     
 -0.258754780805902     
   1.48572837446269     
  -9.99814085723340     
 -0.265225355870811     
  -10.0281942875323     
  -5.25494191662911     
  -3.64800846756373     
  -3.87197067094163     
  -9.82934557935617     
  -8.13617281959779     
   3.97032147831254     
  -3.54567217813926     
  -6.91368346360145     
  -5.77832213410914     
   9.09355002959353     
  -2.04278256548490     
  -9.96191149692791     
  -5.40729318267159     
 -0.300234018831474     
   6.39309801031362     
   6.31960456808581     
 -0.307722294475569     
  -9.63567773143840     
   4.70782259738957     
 -0.302435988849297     
   9.12445269324891     
   2.03262383051816     
  -7.04642809447208     
  0.319465691491738     
  -5.27191951143741     
   5.02685462604510     
  -9.44668945499804     
  -10.0431245761699     
   4.94614238838755     
   8.17062738591681     
   5.99267717518000     
  -9.92404033160407     
   8.11534790327283     
  -9.07611092669003     
 -0.299080879292393     
   6.58384612898000     
   7.60189268703790     
  -9.57114554943535     
   1.05211879460622     
  -8.42402013894941     
  -10.0014071617313     
  0.308048287103214     
   1.34299820131914     
 -0.306050482789632     
  -10.4099252138184     
  -1.43477594573057     
 -0.295134733420698     
   3.73143393275407     
  -3.94443315140866     
  -5.60962249180079     
   5.07403827329746     
  -4.00029722813327     
   9.83626357774548     
  -4.35604305093237     
   7.53317603229869     
  7.641052870501151E-002
  -10.0794856980978     
  -4.39603929207135     
 -0.254037545393542     
 -0.248109045960715     
   2.83572597731051     
 -0.247823187688462     
  -9.78291720002549     
   7.01624855355224     
 -0.253698368921071     
   9.56717148304025     
   7.56038048681132     
 -0.248929793456821     
 -0.792527551826109     
  -9.88630241868837     
 -0.242034482228091     
   7.79556811651957     
  -8.34134456144850     
 -0.239551891644828     
   7.40590833503590     
   9.23300521116921     
 -0.241123759887256     
  -6.47572123153108     
  -5.66876303853881     
 -0.229699058500559     
  -6.86538101301474     
   9.88645692213699     
 -0.250562901022713     
   9.89761099876077     
   9.44780191961600     
 -0.255630359380295     
   1.13733718556371     
  -7.64470057598207     
   5.62041150484704     
  -10.4433874436897     
  -8.03436035746574     
   5.92994478660215     
  -1.12343743330802     
  -10.4545415203135     
   5.26470042583417     
  -1.27983148878392     
  -3.40764696394268     
  -7.25504079449841     
  -1.37246806292145     
  -5.98343398180983     
   5.22353617962705     
   1.51932993673262     
  -5.30842956359885     
  -2.43905909299280     
   4.96067343250211     
   6.37370485567202     
 -0.261560391584506     
  -6.70930113451971     
   3.11265870785633     
 -0.257548020841877     
  -10.1352426887981     
 -0.251444015873645     
 -0.251480176708905     
   4.14138118587385     
   9.13484940807111     
 -0.257465988620736     
   4.06818590839206     
   6.92299559209064     
   3.14390315951348     
  -10.5214659800562     
  -9.12066412441583     
 -0.252938271777602     
  -8.73100434293217     
  -5.94373423966171     
 -0.245828021638090     
  -5.68322275379584     
  -7.95168477996484     
 -0.243066779482850     
  -4.32889511586336     
  -10.0125612383551     
 -0.245290008190333     
   6.01646181036316     
   9.32141950099306     
 -0.233395448894560     
  -8.53402172072005     
   8.97433915317823     
 -0.255064067157929     
   5.93071676547090     
  -8.86327260166740     
 -0.259705093848108     
   4.84579033684546     
   5.60324771916150     
   3.36522939394786     
  -8.81367992043307     
   9.10756150119386     
   8.73162846703352     
   9.28669676379596     
   9.08624483183099     
  -9.51032390589950     
   9.47303886341714     
   8.57488767948690     
   3.67364859772491     
  -9.78735769955452     
  -10.5326200566800     
   1.05883479482905     
   9.38739705476103     
  -9.78022702168025     
 -0.265957737017637     
   9.59589972802542     
   8.91555285625632     
   6.70926434956947     
  -8.22988580447645     
   4.57165880836077     
  -9.47241309086215     
  -6.46247330424389     
   5.55251662917606     
 -0.322911908961056     
   5.08992499419842     
  0.592405598556822     
 -0.303381733402961     
  -6.39304565403018     
   5.84726920910125     
   6.23692899058491     
   6.84721816363251     
   5.52185723435893     
   9.28270299604776     
   9.52255517654511     
  -3.47879922679619     
  -1.41237140357979     
   3.34383949017345     
  0.432765462402271     
  -5.64833762764842     
   3.75510230193111     
  -3.54539800557176     
  -5.46052130923104     
 -0.688730771065097     
   2.35094876895573     
 -0.324545982479778     
   5.14666858947163     
  -8.94282102515235     
  -4.27227306395759     
  -2.05928312202451     
  -6.54336552254861     
 -0.246203534080298     
   9.20956843974471     
  -8.85252697096342     
 -0.241448759242505     
   5.06858658202366     
  -7.56202499848117     
 -0.313565599205269     
   4.95298649612679     
  4.776885236818540E-002
 -0.255549409219939     
  -3.31882846297786     
   8.90279942553294     
 -0.250076258803347     
  -7.17236521699751     
  -9.20333970191673     
   2.25332066720044     
   3.37802967994586     
  -5.72820014681458     
   5.24055732631008     
   3.12693617529410     
  -10.0460234682265     
   9.34886521265776     
  -3.86852656582992     
  -6.19566959869609     
  -3.12838586752681     
   1.59598744121516     
  -5.22107598156243     
 -0.513594669061118     
  -8.68963977726914     
  -9.78122631030076     
 -0.321949076325750     
   8.27194923788824     
  -8.06785490670834     
  -5.78233916673219     
   7.08754881610839     
   7.93861609517342     
 -0.308988534944366     
  -5.83539704729967     
  -4.58192695202150     
   2.50307429894298     
  -4.41268800254961     
   5.06475890328970     
 -0.325115991381444     
 -0.977781651698219     
   3.00462432835711     
   5.02727804343066     
  6.246500322309875E-002
  -7.53185887346976     
   2.97899148093480     
  -6.84888789886463     
  -5.10002178038821     
 -0.232606940885787     
  -4.85521254352995     
  -1.07208425054918     
 -0.228241928483476     
  -10.4991578268086     
  0.249041872353746     
  -5.31620881756374     
   4.83090202125035     
   3.98465147202094     
 -0.317494879734723     
   2.24017093028446     
  -10.4880037501848     
 -0.333951127668389     
  -6.91243319066864     
   3.43452911381320     
  0.314384427988115     
  -5.28634668258358     
   5.21520544848791     
 -0.293409259813364     
   3.11570349340152     
  -3.16111185724124     
   2.04931675381448     
  -3.46553186472020     
   9.99799768837484     
   2.59747992093825     
   2.37474218460344     
  -5.91965718533131     
   4.26317306075702     
  -5.69640166856376     
   4.36534292462261     
 -0.339834771753829     
   4.02511556175040     
   3.19471914406448     
 -0.224491090867697     
   1.18033437226080     
  0.488572595263032     
 -0.229648522910602     
  -10.0298712898724     
   1.66235635268533     
   1.04357627801326     
   1.27366342312175     
   2.81632660041561     
   8.89814583000175     
   6.62658877206858     
  0.851700117912234     
   3.94529990809191     
  -3.63613829286993     
   4.55346433805855     
 -0.222185867599324     
   1.42414764841973     
   1.45685885882139     
 -0.218305892568259     
  -10.4768496735611     
   1.50027754570548     
 -0.337553932864244     
  -10.1129479279692     
  -7.54971493650457     
 -0.331910996364737     
   2.40388199877022     
  -7.58959205915952     
 -0.319623850098067     
  -8.60181681967127     
  -3.51261512961809     
   8.26790347550414     
   6.85189438317414     
  -2.34581070672155     
 -0.341018224257867     
   4.38754289416605     
  -8.15881786560054     
  -9.07212592745725     
  -7.85427126356212     
   3.38125307711077     
 -0.354652085550436     
  -7.22541677062827     
  -10.2704992580987     
  -8.89249228708696     
  -9.03456454675867     
  -7.28593180793796     
   4.37167941052760     
   2.38993696221837     
  -9.51972335074489     
 -0.328101800325208     
  -9.59118204099628     
   3.07394235617746     
  -7.28406007144644     
  -10.0906397747216     
  -8.50081526710929     
 -0.216613331755473     
 -0.205244731437086     
  -9.85505633258931     
  -9.14724868885327     
  -8.45638603252055     
   9.55601740641647     
 -0.204632305502392     
  -8.67828717623622     
  -8.58109507373465     
 -0.190574422899409     
  -8.94059617511470     
  -9.17971773250628     
  -9.04165424425722     
  -6.41377477648709     
  -9.24202444060130     
 -0.221049035784198     
  -5.42471977833868     
 -0.209306513414844     
  -9.35443857939007     
  -9.18481006955129     
  -9.30133864177462     
 -0.209434002045300     
  -8.99696271713976     
  -8.57343826100429     
 -0.194812534758574     
  -8.98146138525266     
  -8.46325388636728     
  -5.54439211314720     
  -8.95922855179234     
  -9.38268350622941     
 -0.312333935300094     
  -6.34253587969292     
 -0.916622775786973     
 -0.303853541766725     
  -1.03015640202178     
  -1.98824847523181     
  -1.75723831513122     
  -9.18357752160626     
 -0.593183478117151     
 -0.327525761525462     
  -4.69428213114401     
  -9.54579618578109     
 -0.317156847505365     
  -5.91153366436089     
  -8.54215845618374     
 -0.316486963672791     
  -8.77934524537874     
  -4.77098164580812     
  -5.95746933813363     
   4.85434293245070     
  -9.51054420716291     
   1.23799023914888     
   5.82667985402732     
  -8.76768990693442     
  -10.2495853647407     
  -9.10968730815529     
  -4.81854806424661     
   9.51140109992133     
  -9.92529101859886     
  -9.10468228783660     
  -4.41250985534443     
  -8.75874711669430     
 -0.681380433400708     
 -0.278199932696361     
   4.68807060282678     
  -3.17709199138667     
  -9.58527796858768     
   7.87824369402047     
  -9.21603043965723     
  -9.49082296179115     
  -3.81719379499904     
  -3.39536624102971     
 -0.285712072459062     
  -8.92136205071627     
   9.16010615134975     
  -7.89133237546979     
   1.47137680208223     
   9.38794807686750     
  2.397020094008598E-002
   5.46593044849788     
  -8.71915238595116     
 -0.189224570520034     
  -8.02893606698599     
  -9.54679789024585     
 -0.174471844693628     
  -9.48680520733455     
   1.68724821573038     
 -0.195624795285132     
  -7.91070246514217     
  -9.14271231339972     
 -0.194145429812173     
  -3.97692515312299     
  -4.71679167351970     
 -0.178876110866764     
  -3.20347837274474     
  -5.09372043990784     
 -0.201320454526576     
  -8.86989982037955     
 -0.311932366372363     
  -9.50912089990502     
  -7.55131472006213     
  -10.2007862802388     
  -8.48237262392608     
  -8.80525128763233     
  -9.71587180987825     
 -0.324192440984184     
  -7.31342938764753     
  -3.99665244174262     
  -9.88228980705957     
  -8.61809431653440     
  -3.94264618160645     
  -8.51702796900793     
  -7.16944100244065     
  -8.88040331452124     
  -4.66922525507871     
  -8.84281266833029     
  -8.82911881851026     
  -4.30773628814063     
  -3.34769439907906     
  -4.93879579997227     
 -0.170341073950132     
  -4.86611448298902     
 -0.161818208788943     
 -0.159637390946810     
  -8.69258679247635     
  -8.65895951709816     
 -0.170234393789406     
  -8.35578531798676     
  -8.57923807386368     
 -0.159161087395144     
  -7.90144150878681     
  -9.24377038254221     
 -0.169290830932866     
  -7.91273774213860     
  0.620066861279436     
 -0.149363503187214     
  0.864917735342553     
  -8.96789217008855     
 -0.143928562905415     
   3.19038863646927     
  -6.44909450194253     
 -0.146022564121619     
  -5.08645708687788     
   2.24701481793911     
 -0.184021818740641     
  -8.73012852623619     
  -8.23179176821979     
 -0.184122463321097     
  -3.91506877799552     
   9.50024702329754     
  -8.88119605373484     
  -8.25471299538379     
  -8.86703031650689     
  -3.59728068106053     
  -8.55790145250674     
   4.54534701952841     
   9.02160041671030     
   3.52060533922591     
   3.76516727708762     
  -8.65491272307702     
   9.13634294082387     
  -3.75932347961680     
 -0.196619671277238     
  -8.92126851935838     
  -4.47253782007594     
 -0.138181115138384     
   2.62210407651061     
  -4.54122517129461     
 -0.125479692626130     
   4.47606581428480     
   1.69298278697557     
   3.75776704172293     
  -9.25332067395661     
  -6.41066029182850     
 -0.128672538588263     
  -7.55979501558412     
  -8.20483924515173     
 -0.117279196982733     
  -7.20770403845474     
   2.43742673276122     
 -0.121457252588318     
  -8.61710631791715     
  -8.42569250567003     
   2.06233747417241     
  -8.19453438513941     
  -4.52010423851340     
 -0.107613063236094     
 -0.183278237106338     
  -8.38815597245257     
 -0.106591332369993     
   3.46703877009579     
  -8.22049553486458     
 -0.106308660394606     
  -8.25438423492118     
   3.73052380253193     
  -3.63028782343047     
 -0.391730470550772     
   4.13286441900451     
 -0.100457147488152     
  -8.25053127838118     
  -8.35054199892017     
 -8.740106680315543E-002
   4.11552416641684     
   3.71783862020070     
 -9.711688175571344E-002
  -4.95265700426338     
   3.56826398598984     
  -2.81351967733924     
  -2.16969884842481     
  -4.12068958345866     
  -2.93695879590380     
   2.74695254131059     
   3.94336136393675     
   1.87766013051835     
  -7.88262572077255     
  -8.45684338628302     
 -8.146380027050876E-002
  -2.75998179324654     
  -4.21065058244575     
 -0.165291871792266     
 -0.157263160470125     
  -8.87141384159774     
 -0.154451955656554     
 -0.959629641437269     
  -10.1017938513454     
 -0.164516505606673     
  -1.93492810782430     
  -1.66190629831917     
 -0.153277459150895     
  -2.00568670887441     
   1.71226493347727     
 -0.162643882432673     
  -1.01411372272867     
  -4.17086832467728     
 -0.143875190299804     
  -2.64832378524339     
 -0.720397873639472     
 -0.139240346409032     
  -2.32024956181521     
 -0.378207352112862     
 -0.139694817741336     
  -1.30784641018324     
 -0.665169934526183     
 -0.178713233306322     
  -3.22644166719358     
  -1.56129322512351     
 -0.177998621495143     
  -3.80324859435433     
  -1.71196029813832     
   1.86701869732766     
  -1.76730495398318     
  -1.36304479161347     
  -1.06932729665903     
   1.87192555946047     
  -2.11592289567007     
  -9.59065312808818     
  -1.47346487678427     
  -1.65677983279969     
 -0.383603336369206     
  -2.70491651039353     
  -2.62306880025800     
 -0.189459609134327     
  -4.04178115071366     
  -2.06105497679589     
 -0.132815423383460     
  -1.92561844500247     
 -0.940066197633036     
 -0.120676683684214     
   4.58654116648788     
  -8.15364274711925     
  -2.35459329427433     
  -1.26135036456467     
  -1.41824858642382     
 -0.123150640603680     
  -8.19320310570519     
  -1.30427146972567     
 -0.111948298879484     
  -7.87256750348880     
  -8.29559245024934     
 -0.115384021998630     
  -7.97072660831337     
  -7.59368371605690     
  -8.83771846855121     
  -4.21589451779514     
  -7.82099824658511     
 -0.101957750137888     
  -8.27498234110514     
  -7.99240859845060     
 -0.101690595528482     
  -8.31285058508092     
 -2.255148085131553E-002
 -9.963565602527182E-002
  -2.46494471182627     
   4.24110430893256     
  -4.93961162353696     
  -6.85251793472281     
  -8.04619612151215     
 -9.510495412968971E-002
   4.16252709634760     
 -0.371474693127218     
 -8.241980230092799E-002
  -5.13444994755021     
  -7.89014527542728     
 -9.124627768714076E-002
  -7.90545049095291     
  -1.87439824715749     
  -4.96124731725739     
  -8.02532781345923     
   2.10276557374656     
  -9.16651295761828     
  -7.53573983884737     
  -8.55084579430050     
  -7.70536943589588     
 -0.225882791216975     
 -0.900836877655514     
 -7.503950645226976E-002
  -7.97538094903757     
   1.75350743904253     
  0.706238076065317     
  0.708091039689257     
  0.690275207626691     
  0.684424823544701     
   3.75772489516347     
 -0.600185940796907     
  0.731084959766208     
  -7.51224981404766     
  -7.74173150209066     
  0.703597554856825     
  0.688159784602782     
  0.706117384924575     
  0.681426385505341     
   3.71553991258833     
  -7.13274519214568     
  0.729430666864802     
  -7.47476663884420     
   3.60125179516343     
  -7.67093770177708     
  -1.07892909391466     
   4.43970432937549     
  -8.52643558790903     
  -5.18158992418160     
  -4.78284644567335     
   4.91870225920337     
  0.669240127970974     
   3.49200020931619     
  -7.92403397548903     
  -7.79024764888748     
  0.671497982641123     
  0.989162991731223     
 -0.707946245321842     
 -0.533409629227004     
  -6.77928791359080     
  -3.63985895709160     
  -8.21393672153089     
  -2.41065124095211     
  -7.23765193974083     
 -6.799252311329620E-002
  -8.12125648493211     
 -6.294675735710667E-002
   2.06807204845116     
   4.85786872316350     
  -8.40542491137969     
  0.759383471030858     
  -7.62903257836297     
  -1.78940254306789     
  -4.66559781000695     
 -0.300394432797802     
  -9.92418844798869     
  -9.67851947054857     
 -0.361118350440327     
  -9.21154631316918     
  -7.81682046408434     
  -3.05391063009478     
  -9.98797192921162     
  -9.52304114230262     
 -0.343845808982152     
  -9.54931106852242     
  -6.53891521553072     
  -1.11572730747950     
  -1.58068625290239     
   3.55717127678768     
   4.31253545068389     
  0.650833065377786     
 -0.104883951090631     
 -0.120695594217643     
   2.62783864727507     
   2.45685400090571     
 -0.131472565713734     
  -7.87518211442435     
  -3.10943119454285     
 -5.850637721100798E-002
  -9.02232658395779     
 -4.835960440958880E-002
 -5.243392367764734E-002
 -4.326359792421449E-002
   9.18757404418714     
 -0.310826951160266     
   3.41747980220505     
  -9.55044080641764     
 -3.959553658789044E-002
   6.70022816844926     
 -2.858808134463725E-002
 -3.340322831339428E-002
 -2.345582827953356E-002
   4.32610947993931     
  -4.80002286832962     
  -8.56214202765335     
   5.54028500511849     
  -2.99811831661843     
  -9.32671336917060     
  -7.17024641644684     
 -1.955016070843785E-002
  -5.61122927303882     
 -8.687916682183307E-003
 -1.332715162168296E-002
 -3.531768233849122E-003
  -7.54029576161271     
  0.661437182635334     
  0.649350647442987     
  -3.86681705727627     
  0.664760915375431     
 -0.646262201406269     
  0.651754836788087     
  0.696162960111848     
   3.84350914737228     
  -1.68148937116386     
  0.700193208123661     
  -7.70413543293002     
  -7.93473167591886     
  5.954392865874934E-004
  -7.62860251785232     
  1.131939851908782E-002
  6.836868942597062E-003
  1.648779113072897E-002
  -6.12804552038564     
  2.082972974820344E-002
  -4.41192643955609     
  3.143325951244612E-002
  2.707818623758972E-002
  3.660288324397332E-002
   4.72496443130715     
  4.113708475532965E-002
   2.44316130562095     
  5.161040791289234E-002
  4.738202660349496E-002
  5.677137847648916E-002
  -7.77925908371537     
  -4.56767065722170     
  -8.82021045475095     
  -7.52673814058130     
  -1.30496981990973     
   9.73866540874169     
   4.67412757667980     
 -0.159828006230296     
  -1.21823858699947     
  -2.27328419291806     
 -0.167853619421631     
  -4.91368090077527     
  0.239351970566454     
  6.150560152924396E-002
  -7.62909425195127     
  7.187184091630880E-002
  6.773731977088589E-002
  7.701490128648719E-002
  -7.26565726475355     
  -2.22156205069583     
  -7.59610695887151     
   9.95338138187970     
  -6.76610742987534     
   4.50791964837010     
   2.75531851297332     
 -7.829859006809556E-002
  -8.00853995613800     
   2.81344288520629     
 -9.473147545309198E-002
  -3.90410107893843     
  -7.09522595031338     
  8.192999782955387E-002
  -4.66280347196103     
  9.218389235849442E-002
  8.813946763262989E-002
  9.730037872150335E-002
  -4.61523707474262     
  0.102406404671423     
  -6.79074183782364     
  0.112559352013709     
  0.108585130250015     
  0.117641155351984     
  -6.49622719405564     
  0.122926168681660     
  -6.54226767992185     
  0.132983477509951     
  0.129066116655992     
  0.138022591058091     
  -6.09092764963895     
   2.86357346326526     
  -3.56038401933922     
  -8.13909528016134     
  0.674583830695928     
   3.11712098345365     
  -8.08369510444568     
  -9.91215618459982     
  -4.71036976997244     
  -3.26447175581674     
  0.655622818945495     
   3.07270948778956     
  -2.96855973407454     
  0.675320686675348     
  -3.31758371812664     
  -2.91688013834233     
  0.641936540980032     
  -7.24074098983995     
  -3.66751368887737     
   3.86165119465903     
  -7.52795246285063     
  -1.00442222710002     
  0.678577839712689     
   3.95100990601410     
   3.29017241031778     
  -4.31679311390057     
  -3.70075700195717     
  -6.99795935196364     
  0.660239066252972     
  -7.17638954306247     
   3.66195065125471     
  0.680145194978173     
  -6.87575201990531     
  -7.20549059045988     
  0.645524532394990     
  -7.54208342430691     
   3.38844508749329     
  -6.87317277605132     
   4.51644329752273     
  0.631539861140587     
   2.76588636510484     
  0.628989211945982     
   2.77235067431473     
  0.149580471494510     
  0.158433159954015     
  -2.02910498862063     
  0.143486893617252     
  -3.61535053550758     
  0.153443728412971     
  0.170117388034966     
  0.178882563861548     
   2.90738984872521     
  0.164077289622608     
  -6.90472203008828     
  0.173950161937379     
  0.184701947060922     
  -4.16023248363269     
  0.194497115460988     
  0.190682040348425     
  0.199366701280781     
  -5.88183450707646     