 TITLE="euler solver on unstructured grid" 
 VARIABLES= "X" "Y"  "P" "Rou" "U"  "V"  "nuT"
 ZONE NODES=       11173  ELEMENTS=       18178  ZONETYPE=FEQUADRILATERAL
 DATAPACKING=BLOCK
 VARLOCATION=([3-7]=CELLCENTERED)
 -0.306719808869369     
 -0.301698996702798     
 -0.302324664377430     
 -0.306135772068466     
  -7.37884777520632     
  -9.18228019117832     
 -0.300286673188374     
   9.58176074743780     
   9.50661774444748     
 -0.311654245727693     
   8.81209973137566     
  -9.99588580444705     
 -0.309060932035182     
   8.88307578193387     
   8.34002358963894     
   5.01380743581548     
  -9.70366947372607     
  -10.5531954608010     
 -0.316787232815998     
  -9.76735603231862     
   8.85919522212975     
 -0.312967218793748     
   9.32557363231332     
  -9.45407291250141     
 -0.317835406568280     
  -8.79671925400603     
   8.81458497407310     
 -0.311199388323095     
   8.91865990642760     
  -9.44448175566083     
 -0.307101102873757     
   5.73868780929943     
  -6.37263512871198     
   8.81612121037376     
  -6.27740466277120     
  -7.01333795617394     
 -0.302194771569795     
  -5.80856127906855     
   8.94687992051421     
 -0.311560700485735     
   5.43145568495220     
  -7.72856770909089     
   6.45517233873529     
   5.16491390683869     
   6.42122049500217     
 -0.307229430525583     
   5.62864644318269     
  -7.21236204350054     
 -0.314232784889276     
   6.01521299822008     
  -6.93628886215562     
   6.33267715608811     
   6.57272768256009     
   8.97702638798715     
 -0.306963091759625     
   9.42087339359237     
  -6.57629296266471     
 -0.311958317261819     
   7.83839812550320     
  -9.58725085799682     
 -0.301282964240897     
  -5.81760172582109     
  -6.20765729712123     
  -9.02292126454669     
   7.34551338947288     
  -8.06724975801336     
   5.77230124443611     
   8.46880488435881     
  -5.59042465291479     
  -7.41250999453279     
  -7.41177575510198     
  -9.34141057812953     
 -0.287024618537036     
 -0.286080567754224     
 -0.281614982656172     
 -0.292289110037665     
  -7.28229809278966     
  -6.57648431817295     
 -0.291394740186569     
  -7.75833550102163     
  -6.72780277629454     
 -0.287825796030276     
  -8.70354997081103     
  -6.45313714403918     
 -0.293344031047692     
  -8.22711063609923     
  -8.87643046332671     
 -0.297042277485925     
   8.90855554617888     
  -9.50350571206930     
   8.31571519231368     
   6.08790536072137     
   6.12484215622211     
 -0.301200894265462     
   8.04830937351412     
   5.58183548588804     
 -0.288566681576944     
  -9.36411581243818     
  -8.31297874981335     
 -0.283500673119874     
  -7.83697889626685     
   7.87837303224277     
 -0.281623527972339     
  -8.39189398352863     
   7.75602595481512     
 -0.276792765345227     
   9.64897814159966     
   8.23329998441044     
   8.54845687901284     
   7.30835438199168     
   6.21027474308598     
   4.70737215337451     
  -10.2008257166830     
  -7.36122318125278     
  -6.29846604462272     
  -8.54955650940468     
  -7.23850784135770     
 -0.290184145963562     
  -7.91587498672009     
   6.96118149099718     
 -0.283371052898736     
 -0.278102329972721     
 -0.282897929330243     
 -0.288903789023454     
  -8.09992832818483     
  -9.17848243765324     
 -0.287518101120844     
  -7.74293945756814     
   7.63367006672244     
 -0.283659056555416     
  -7.60017253507244     
   8.13368719127573     
 -0.289024734273627     
   8.41629294504282     
   7.06365136237800     
 -0.284697532722302     
  -7.90639581988989     
   5.36562229633898     
 -0.294786090940343     
   7.55584798971808     
   7.18600713417693     
  -9.27864859339556     
   5.12288908433033     
  -8.58844743363808     
 -0.296013278452383     
   7.65551972251593     
   4.64232040319564     
 -0.279605714775367     
  -8.65566142212906     
   7.98620949600833     
   5.84034078978822     
  -8.37531944330052     
   9.00957307872673     
 -0.272977167490739     
   7.43306788310583     
   8.41784726061084     
 -0.277318048664526     
   7.61777786421760     
   7.63756881058318     
   6.61596434021537     
   5.54943819872079     
   6.49365847331637     
  -8.93990819992674     
  -6.88514226875528     
  -6.80640223894573     
 -0.287365396822713     
  -9.96836602278137     
  -6.13490888138182     
 -0.294123610312848     
   7.12550480444154     
 -0.291454370007109     
  -8.14577675551024     
  -6.70628391473034     
  -6.31548601910180     
 -0.295066202784192     
  -5.80473075260032     
  -8.61310925457837     
 -0.296625361361788     
 -0.293870335044572     
   6.93860706927162     
  -8.47079180203477     
  -8.07943458839990     
   8.22103827230995     
 -0.297038814283435     
   5.64510372870110     
   8.08362614456484     
 -0.305655940770839     
 -0.298056722337111     
  -7.99566585956865     
   8.88513161899973     
   8.01277650505926     
   4.65619521318783     
 -0.303095007919059     
  -6.18987142489666     
   6.11647080856502     
  -10.5040347783922     
  -6.10936083735662     
   5.47652196173313     
   6.94108333758651     
   6.52137518305702     
  -7.58426264139618     
  -8.91278797389164     
   7.18629876153964     
 -0.299551085278234     
 -0.304020573978330     
  -5.93647099692332     
  -6.96992287032054     
 -0.306489917686491     
   5.91934187878043     
  -9.19956502745182     
  -8.98436952228894     
  -9.77340280804301     
   6.86310108322136     
  -8.97315270604102     
  -5.19350965296741     
  -9.55272391921296     
 -0.300392711360472     
  -9.54945210582999     
  -7.57105397851186     
 -0.307195645832603     
  -9.86670857011802     
  -1.52248153152983     
   6.20696644385520     
   6.40028598864443     
   4.76654272177679     
   6.69597089746461     
   4.23790490218677     
 -0.947935742628613     
   5.49724899809971     
  -1.34254377881051     
  -7.03645257859300     
  -8.48360475365655     
  -7.07366501464216     
   9.37473431472214     
 -0.272136386891419     
 -0.267458700125568     
   6.04593792145769     
   7.38452567730931     
   9.47572246265686     
   5.60782286092561     
 -0.267619035859951     
  -10.6679037197549     
   6.86068384626319     
 -0.273641430418035     
  -7.44036168470904     
  -10.0296569917452     
 -0.267719648870507     
  -5.26843728113905     
  -8.16422674884095     
 -0.263167238272899     
  -8.00692199711340     
   5.26815404998434     
 -0.259257855312931     
   8.38572051729370     
  -10.4876478842559     
 -0.254736477109699     
   8.50845145896075     
   6.99873697497875     
 -0.274002462203419     
   5.10117526015332     
   7.79848260933046     
 -0.261426891924126     
  -8.82278124076485     
   9.16892927936243     
  -9.96941236345349     
   7.12807968915586     
   6.10454121262807     
   8.62570874004776     
   4.69301860414894     
   7.13525082518329     
  -9.61894730563427     
  -9.90386478690839     
  -9.28691648162859     
  -7.28323383670289     
  -9.50780566426831     
  -6.36524761760870     
 -0.276460010249380     
   5.58939151505929     
 -0.271558012161312     
  -6.17123320339224     
   1.14717781373669     
   1.16423400277851     
 -0.272178945489772     
  0.818325145154927     
   9.56728031990766     
 -0.278472904517403     
  0.806746633386508     
  0.835386467163920     
 -0.272763259571221     
  -3.22302490739777     
   5.03057172870684     
 -0.267940526987391     
   9.28494922427511     
  -5.74543407034548     
 -0.264714686709481     
   8.89995121982145     
   9.06874440829289     
 -0.275255030440375     
  -9.99247938600610     
  0.960162928178322     
 -0.259372986630310     
   1.41437686401270     
  -10.0179465904990     
 -0.265798085705856     
  -10.0544985071393     
  -5.38245296930996     
  -3.70831392343601     
  -3.74183469514857     
  -9.83692211560051     
  -8.05384945744392     
   4.09684220276551     
  -3.41960240376990     
  -6.84223750522869     
  -5.90269125698201     
   9.04200767608975     
  -1.96720738252695     
  -9.94339230972129     
  -5.45104480948249     
 -0.299712360409194     
   6.30811693630060     
   6.18223186892450     
 -0.307213111421437     
  -9.66556019093371     
   4.62060037304826     
 -0.301792504451948     
   9.18806538278452     
   2.16186850935864     
  -7.14243635241261     
  0.194608842536344     
  -5.30804114375872     
   4.92446161584194     
  -9.41793321326826     
  -10.0761889957596     
   5.07278359013942     
   8.29306549674746     
   6.06972289423489     
  -9.89270326890766     
   8.23027931591307     
  -8.98327822128643     
 -0.299456776529117     
   6.69537157584786     
   7.51177371760411     
  -9.44444332344602     
   1.17308757483119     
  -8.28564847939240     
  -9.87109099863585     
  0.437738251950101     
   1.46757968187849     
 -0.306490554339601     
  -10.4712609901197     
  -1.51262242117237     
 -0.294465790018322     
   3.77752363068394     
  -3.90715050068354     
  -5.49829084895876     
   5.07292454501852     
  -4.12972604139472     
   9.88477638906690     
  -4.48155726203253     
   7.60598270673595     
  0.149410996188908     
  -9.98579925758976     
  -4.52832530399326     
 -0.253092669966733     
 -0.247208194718876     
   2.96100126949239     
 -0.246846859776459     
  -9.84537969406473     
   7.14729075920466     
 -0.252693275209645     
   9.48944257367605     
   7.68398165625127     
 -0.247870408065807     
 -0.921767765369874     
  -9.87225284904859     
 -0.241028839200723     
   7.92624038127733     
  -8.47175774759987     
 -0.238612856458447     
   7.53676557024100     
   9.16103008724749     
 -0.240031034490482     
  -6.33827442421069     
  -5.58857199144921     
 -0.228722082342329     
  -6.72774923524703     
   9.95851741206967     
 -0.249387053812920     
   9.97490430620595     
   9.47469289845857     
 -0.254552235836298     
   1.06862993956629     
  -7.50669885731971     
   5.68933872706635     
  -10.5204216725285     
  -7.89617366835606     
   5.79275705788816     
  -1.24805335410956     
  -10.5368085666648     
   5.34112677470580     
  -1.15143006235803     
  -3.29561164874630     
  -7.11722404628337     
  -1.44569539707656     
  -6.04782601848965     
   5.23821696509221     
   1.64823892062338     
  -5.23456416035628     
  -2.51657786838624     
   4.89568425037903     
   6.49103604952134     
 -0.260403701731498     
  -6.81975704413171     
   3.15415518868815     
 -0.258250047980184     
  -10.1791394279070     
 -0.252107730624369     
 -0.252219486660493     
   4.09741282232952     
   9.17602743563187     
 -0.258228433990291     
   4.02990229435078     
   7.01791901373566     
   3.10245444683501     
  -10.6351299314824     
  -9.25070736967255     
 -0.253759421751630     
  -8.86123255863622     
  -5.93800441978204     
 -0.246602077650680     
  -5.70102341294027     
  -8.08228293656353     
 -0.243776716887711     
  -4.28685561019731     
  -9.88747789277212     
 -0.246151834283300     
   5.97014669073196     
   9.29595227204264     
 -0.234152595339135     
  -8.48752047341791     
   8.93724690537307     
 -0.255999894609646     
   5.88891647129514     
  -8.81427235674960     
 -0.260538589042362     
   4.85595042166806     
   5.55963920605974     
   3.31820554734160     
  -8.67512329042874     
   9.16217589780512     
   8.74284271908278     
   9.33609756662397     
   9.09728619267962     
  -9.64018218070889     
   9.51730570454750     
   8.70519000335002     
   3.63126065589727     
  -9.82653372860083     
  -10.6515168256187     
  0.959285525769300     
   9.34902714800039     
  -9.74368425811961     
 -0.266864015437760     
   9.64990893287270     
   8.92241423747192     
   6.57170667996084     
  -8.24231640426501     
   4.46825940856355     
  -9.43855616565279     
  -6.55587120229959     
   5.57261613187899     
 -0.322921673406695     
   5.11112156281460     
  0.462379911304513     
 -0.302589929499322     
  -6.52438369241817     
   5.97886632609564     
   6.36834113713198     
   6.73832203367735     
   5.46778415036116     
   9.21865926126808     
   9.42389499713096     
  -3.43905373637820     
  -1.53354942929304     
   3.38912470756373     
  0.532534411350301     
  -5.62707294351892     
   3.83033618672425     
  -3.48772161240570     
  -5.54933068092644     
 -0.610392869480881     
   2.22650624793684     
 -0.324255098555530     
   5.07860791643714     
  -8.80890229239240     
  -4.21365811640331     
  -2.13625838733233     
  -6.51117950164734     
 -0.247203116722065     
   9.24220647675604     
  -8.80865811136832     
 -0.240217689372338     
   5.16675702808765     
  -7.69280812552719     
 -0.313024763666439     
   4.95752099009651     
 -8.077332412504845E-002
 -0.256713235071931     
  -3.44232043034640     
   8.93129323310736     
 -0.248672413810460     
  -7.30333331449085     
  -9.06459810146508     
   2.12311409769927     
   3.45370471324017     
  -5.76794983509033     
   5.24904322492528     
   2.99572433462924     
  -9.93663857518094     
   9.34641088592849     
  -3.82605479891490     
  -6.21494799963645     
  -3.07217778728835     
   1.47547912091844     
  -5.11775255510860     
 -0.440987823141567     
  -8.61028686774289     
  -9.75663074122027     
 -0.322136568138219     
   8.19978992793503     
  -8.19232614374973     
  -5.86199339441765     
   7.19638791425218     
   7.86820504773163     
 -0.308075244847472     
  -5.84723386030882     
  -4.63571011171218     
   2.46500486350323     
  -4.46227429319824     
   5.17165659597994     
 -0.324615658861852     
  -1.05446424649206     
   3.11537637705712     
   5.14264144605923     
  0.173393865444816     
  -7.59757210970409     
   3.02477361806986     
  -6.71900219356338     
  -5.03622120044097     
 -0.233521458814332     
  -4.78813818480260     
 -0.991772063353880     
 -0.227108646839591     
  -10.6023561432098     
  0.353748140257157     
  -5.22287208651555     
   4.75693862063831     
   3.92645032896796     
 -0.316799226913445     
   2.19928168149859     
  -10.5859692490736     
 -0.334011010474457     
  -6.84806922929790     
   3.30356275220954     
  0.437039720319068     
  -5.20018799669600     
   5.20818265188052     
 -0.292335645059006     
   2.98874620583953     
  -3.05723598898173     
   2.17243519017713     
  -3.35856427293779     
   10.1223863534324     
   2.55484123290187     
   2.49881801161777     
  -5.97733215663228     
   4.16908542266267     
  -5.55932480213802     
   4.23543909304964     
 -0.339528024169438     
   3.89971561131527     
   3.30111063360220     
 -0.223173523994428     
   1.28222990065920     
  0.597363907078505     
 -0.230750510934063     
  -10.1453048128690     
   1.75866467587220     
  0.938943050332206     
   1.37010897249876     
   2.74260492113414     
   8.83057293953022     
   6.75781594816832     
  0.950248041143683     
   3.81316615220307     
  -3.70775059344692     
   4.45549236533615     
 -0.222991442174454     
   1.51542970980265     
   1.35566939110112     
 -0.217291217742622     
  -10.5695823549373     
   1.60185042532218     
 -0.337770984260985     
  -10.0349599399986     
  -7.60992932455777     
 -0.331789374384389     
   2.32286173131903     
  -7.51945012502367     
 -0.318458266468472     
  -8.52947290121866     
  -3.41061816197710     
   8.12960592410620     
   6.77152836117926     
  -2.21514603892806     
 -0.340322673794719     
   4.26494768767274     
  -8.21308856069757     
  -9.11748397898489     
  -7.91151402331417     
   3.49200836601115     
 -0.354743863238403     
  -7.15770749342405     
  -10.2664248164685     
  -8.82817871959448     
  -9.07491299849707     
  -7.21417757417104     
   4.25392356245134     
   2.30370981795977     
  -9.45645440632204     
 -0.328479858301751     
  -9.58532538585027     
   2.99579450748399     
  -7.25863360363534     
  -10.0021861517260     
  -8.55712468080607     
 -0.215468971280717     
 -0.204193567151147     
  -9.85108170148307     
  -9.20262593995938     
  -8.47311485301701     
   9.47305567953978     
 -0.203407694754956     
  -8.68416633049695     
  -8.59224749804000     
 -0.189488819064808     
  -8.95005320933682     
  -9.13324290496884     
  -9.04625014375441     
  -6.34219210997009     
  -9.19030927005593     
 -0.221985639113496     
  -5.51819431677418     
 -0.210160891342933     
  -9.36271835282301     
  -9.24519692044664     
  -9.33369674527443     
 -0.210462056633316     
  -9.03229281682629     
  -8.50650406137197     
 -0.195715196443796     
  -8.97275713528140     
  -8.51455370027482     
  -5.64237612200143     
  -8.98953988999855     
  -9.37310345039075     
 -0.312927675837444     
  -6.36627930173797     
 -0.785356640962513     
 -0.304606860084334     
  -1.14862931811581     
  -1.85783416674813     
  -1.88055634915596     
  -9.16515100202330     
 -0.465626837556346     
 -0.328187111698711     
  -4.74024885641995     
  -9.52572037925512     
 -0.317656366788335     
  -5.93696948681616     
  -8.49043060879943     
 -0.316823121871237     
  -8.78036326491454     
  -4.66169927033475     
  -6.05878588253681     
   4.84849246032131     
  -9.46157476266765     
   1.35347251864866     
   5.94362724984614     
  -8.81601883965201     
  -10.2356993904209     
  -9.16005495947217     
  -4.71425903644585     
   9.40750810299468     
  -9.97444719941313     
  -9.07231330182962     
  -4.30116716984314     
  -8.72741883805198     
 -0.575425735870657     
 -0.276943582527621     
   4.62000479856487     
  -3.11346810973527     
  -9.59716106592019     
   7.74013111306987     
  -9.17914163700053     
  -9.45191983613311     
  -3.71212103958677     
  -3.34407755492770     
 -0.286641148924153     
  -8.94665421801372     
   9.16266243627843     
  -7.88647834384593     
   1.59105436330812     
   9.39529979106284     
  0.149191666990897     
   5.49946667786224     
  -8.70687025599964     
 -0.187979293525655     
  -8.03287522697338     
  -9.54491489631556     
 -0.173354870500192     
  -9.49004985883889     
   1.80232767059316     
 -0.194194551607696     
  -7.97330813485303     
  -9.14244707817199     
 -0.195208722101377     
  -4.04603148338653     
  -4.60243619717347     
 -0.179825351738706     
  -3.07661654491324     
  -4.98046855543373     
 -0.202562269364522     
  -8.81566034454608     
 -0.443040579090139     
  -9.46484552441245     
  -7.50687036250165     
  -10.1640067296430     
  -8.44705383895155     
  -8.85858982013916     
  -9.76042090352074     
 -0.323301742537971     
  -7.25077226142207     
  -3.87824267466937     
  -9.82164559085327     
  -8.61067332136037     
  -3.81876904533339     
  -8.51446826588616     
  -7.11122935289145     
  -8.87656019933211     
  -4.54987643105993     
  -8.90116080062635     
  -8.84347148479621     
  -4.18634805591690     
  -3.23060236090436     
  -4.81210883471831     
 -0.171445801916392     
  -4.76681880286728     
 -0.162810951716327     
 -0.160779188426527     
  -8.73088888834905     
  -8.63337723768159     
 -0.171496184609336     
  -8.34478644283526     
  -8.60249531176026     
 -0.160467051623625     
  -7.84437718236338     
  -9.23864401258955     
 -0.170771219599756     
  -7.85063636988568     
  0.739116132699819     
 -0.150581295457904     
  0.980910983474125     
  -8.98690378521839     
 -0.144961066830363     
   3.30550571234939     
  -6.51355808848784     
 -0.147439047254325     
  -4.97863626710171     
   2.36647361823998     
 -0.185180957523972     
  -8.77344785916454     
  -8.17231102810668     
 -0.185472982301427     
  -3.81997755859907     
   9.39112120885841     
  -8.82191953207189     
  -8.24857553914048     
  -8.93078707265700     
  -3.72429123080440     
  -8.53718030783175     
   4.62911767849280     
   9.01474210391964     
   3.64595068832451     
   3.64818884871567     
  -8.68819717246445     
   9.09404443356823     
  -3.64916096957807     
 -0.198207569733441     
  -8.89926411985861     
  -4.36633449166613     
 -0.139375423348465     
   2.74157351054242     
  -4.58132661961427     
 -0.126547908258975     
   4.36294288974404     
   1.79933545216271     
   3.87796056644402     
  -9.19656845758176     
  -6.47009253986394     
 -0.129908038822639     
  -7.51018414868660     
  -8.16081304669759     
 -0.118475257481238     
  -7.26587941375895     
   2.55252745509007     
 -0.122825634698570     
  -8.64537271139310     
  -8.47198271978832     
   2.17742756276902     
  -8.17509649529454     
  -4.41889425777616     
 -0.108889887159868     
 -7.865936562324438E-002
  -8.42943304689712     
 -0.107691461459238     
   3.35316749674012     
  -8.16605184058098     
 -0.107825064630530     
  -8.18482940314906     
   3.60357367467696     
  -3.58414995089129     
 -0.291281669901331     
   4.25305376395977     
 -0.101666193644875     
  -8.31081930072748     
  -8.38680254187671     
 -8.852921392457373E-002
   4.00068967380994     
   3.59578679588139     
 -9.844924003261335E-002
  -4.83491937393207     
   3.68338184387171     
  -2.70778118514353     
  -2.06522463457691     
  -4.01250569822122     
  -2.81260913815868     
   2.62346794569827     
   4.05847504202551     
   1.98838150741040     
  -7.83578933593332     
  -8.44098337636886     
 -8.293359929627547E-002
  -2.64923243511374     
  -4.14606963118143     
 -0.164027819771894     
 -0.156118950477343     
  -8.83411779888087     
 -0.153161060811130     
 -0.834639910889990     
  -10.0185730458623     
 -0.163095809437652     
  -1.80902497326394     
  -1.53076087254564     
 -0.151823181187043     
  -1.88624567018783     
   1.83640365320069     
 -0.161005925252605     
 -0.894196573158420     
  -4.06772648193111     
 -0.142518198412206     
  -2.52754123539001     
 -0.603641374192945     
 -0.138073422966564     
  -2.19705635850718     
 -0.264796636140760     
 -0.138142705338064     
  -1.18476875327927     
 -0.543435014336715     
 -0.177381905172112     
  -3.18124578990731     
  -1.43577342887176     
 -0.176476204612523     
  -3.75130072562265     
  -1.59567933682105     
   1.96809855453661     
  -1.65600645477359     
  -1.24494561440498     
 -0.954388593095239     
   1.99137372602843     
  -2.00645431983406     
  -9.62510302723586     
  -1.36533348345145     
  -1.53552034345668     
 -0.274850417407118     
  -2.58915246593640     
  -2.49710436960713     
 -0.187688439885002     
  -3.99467924963295     
  -1.94659655028006     
 -0.131492473847443     
  -1.82925066351601     
 -0.843212067866981     
 -0.119491618283440     
   4.53571117949607     
  -8.15236652968472     
  -2.23697077300535     
  -1.16629874009344     
  -1.30512783115510     
 -0.121795600585331     
  -8.15436605246623     
  -1.21413001069385     
 -0.110643424706939     
  -7.83090894593034     
  -8.27129342565785     
 -0.113903211974113     
  -7.99993229856356     
  -7.52896171166420     
  -8.76885113796716     
  -4.11772717070281     
  -7.78871024558868     
 -0.100581443514236     
  -8.30121380517908     
  -7.98269320117830     
 -0.100491595569817     
  -8.34409120473376     
  9.784061523932325E-002
 -9.802149057779316E-002
  -2.35733495910497     
   4.14155644857933     
  -4.85491312800676     
  -6.91378640885607     
  -8.08542921815058     
 -9.380307517077673E-002
   4.05287277929417     
 -0.252900395060991     
 -8.121104167096753E-002
  -5.05385080907464     
  -7.83811799483329     
 -8.982450392648506E-002
  -7.88201430876088     
  -1.77305499344622     
  -4.87193833251905     
  -7.99685229848161     
   1.99042898834289     
  -9.17994569893700     
  -7.55041723397583     
  -8.49398568632721     
  -7.71031882784608     
 -0.129968088960936     
 -0.808770808282932     
 -7.349541572890469E-002
  -7.99286694012506     
   1.64377999517389     
  0.706522839829840     
  0.708218338894574     
  0.690444252150413     
  0.684803983407275     
   3.86847726010470     
 -0.503907353623612     
  0.731126355393126     
  -7.56745387649684     
  -7.78394192816328     
  0.702643545920752     
  0.687336400706007     
  0.705318764794336     
  0.680398859757650     
   3.65852647738145     
  -7.18090040778992     
  0.728695968409059     
  -7.52496055181675     
   3.53892917027602     
  -7.58456890031550     
 -0.969283402829629     
   4.33176876625824     
  -8.48525528018224     
  -5.08375579977574     
  -4.91127386952062     
   5.01220565043846     
  0.668392281225233     
   3.43637460251792     
  -7.85689555740662     
  -7.79025499075849     
  0.671709384621844     
   1.10017803920448     
 -0.596381714914687     
 -0.398783621197302     
  -6.83053479337337     
  -3.51955339606202     
  -8.16470830939530     
  -2.29803894851353     
  -7.29983557769520     
 -6.914502876915191E-002
  -8.17051758023919     
 -6.173209517796624E-002
   2.17443534736642     
   4.97797472757761     
  -8.37573322078369     
  0.863654648806841     
  -7.62060054505472     
  -1.71072044185458     
  -4.54082994567983     
 -0.299079319134408     
  -9.88246177611724     
  -9.62413116979549     
 -0.360738714020962     
  -9.14985337781657     
  -7.86905244057531     
  -2.93999669518376     
  -10.0013053310390     
  -9.46339601576292     
 -0.344289351308993     
  -9.60217522259604     
  -6.53469773601943     
  -1.01122174963650     
  -1.48248531363841     
   3.45354413260951     
   4.25829028275048     
  0.775853889749840     
  1.083256750273986E-002
 -0.118774016030600     
   2.73858129163071     
   2.33710059444453     
 -0.133247947757750     
  -7.88465956448024     
  -3.00056971988560     
 -5.990445947369066E-002
  -8.99546104971640     
 -4.953322663791464E-002
 -5.098317835334840E-002
 -4.204648240885650E-002
   9.17531001255920     
 -0.311847576179684     
   3.29847311634608     
  -9.53581189947791     
 -4.103073851739392E-002
   6.82554495714874     
 -2.977960001518003E-002
 -3.193337406707614E-002
 -2.223960450545911E-002
   4.42376516968421     
  -4.66903826142394     
  -8.50024487385055     
   5.40328224685182     
  -2.87917734689221     
  -9.30332442963346     
  -7.22341160546282     
 -2.100208689188499E-002
  -5.54235255757335     
 -9.894492712378933E-003
 -1.185961866674566E-002
 -2.319391552181401E-003
  -7.50100484494179     
  0.660342764209537     
  0.648477881762292     
  -3.76673378041811     
  0.665225791140972     
 -0.558844763456081     
  0.652009971204612     
  0.694886162665267     
   3.79036049145480     
  -1.59323072358496     
  0.700807159063274     
  -7.74133170556712     
  -7.95830215247113     
 -8.703752389201094E-004
  -7.65577327690880     
  1.010045005409538E-002
  8.299155371433850E-003
  1.769353959779304E-002
  -6.06577138510825     
  1.935266010936103E-002
  -4.33377821140449     
  3.020447397622347E-002
  2.853251411792546E-002
  3.779937220672885E-002
   4.81360574506644     
  3.965120053247814E-002
   2.54953523827745     
  5.037407616383735E-002
  4.882589104292814E-002
  5.795626168386017E-002
  -7.82648146041704     
  -4.47145402416322     
  -8.80306718999280     
  -7.49258759630377     
  -1.22047883620677     
   9.74139106751112     
   4.61838175184186     
 -0.157613303988799     
  -1.11842677322310     
  -2.17877815675901     
 -0.169697221088336     
  -4.81937856834136     
  0.356006076524018     
  6.001315342284935E-002
  -7.60118670956573     
  7.063009655987137E-002
  6.916841661111867E-002
  7.818596950796136E-002
  -7.25850848113670     
  -2.12207049497464     
  -7.61674371266827     
   10.0568387768873     
  -6.82248657897365     
   4.61866365351916     
   2.62437664922383     
 -7.620879087907742E-002
  -8.04275778435312     
   2.92855424923677     
 -9.674113909610202E-002
  -3.84273960437374     
  -7.13837136837152     
  8.043307840821443E-002
  -4.57657353464496     
  9.093874569104614E-002
  8.955565553740649E-002
  9.845557771652542E-002
  -4.52401378936107     
  0.100906984116558     
  -6.83685817957147     
  0.111312676990278     
  0.109984393692315     
  0.118778554815440     
  -6.43295638308975     
  0.121426112706186     
  -6.48832895645297     
  0.131737131074196     
  0.130446552573261     
  0.139140291644023     
  -6.03468107239115     
   2.75574241810370     
  -3.46335638860129     
  -8.10576641645286     
  0.673325785976488     
   3.00115943603065     
  -8.12794659996423     
  -9.90279941275290     
  -4.62913318132845     
  -3.17056709750761     
  0.654227669011134     
   2.95174907309492     
  -2.87777805069636     
  0.673867285060121     
  -3.22867748668015     
  -2.82111285309034     
  0.640789329648445     
  -7.18850949079987     
  -3.58051295640314     
   3.75505398432663     
  -7.52438174184450     
 -0.916753785068537     
  0.679193542236780     
   4.04866994048612     
   3.19452518341615     
  -4.22864887601962     
  -3.58551316098232     
  -6.97313588290553     
  0.661009580099423     
  -7.14590262666419     
   3.56863464263658     
  0.680955160595187     
  -6.84119638677280     
  -7.18504132918120     
  0.646060589427439     
  -7.51993049700294     
   3.29966463283983     
  -6.86778714769071     
   4.43836798967062     
  0.631838981361119     
   2.71336062348166     
  0.628091721974212     
   2.65443539809867     
  0.150940281275777     
  0.159529506010930     
  -1.94270816318761     
  0.141987965548194     
  -3.52334147571556     
  0.152199335238307     
  0.171454891640352     
  0.179955811683775     
   2.80463527259030     
  0.162581144705090     
  -6.92147533168837     
  0.172709425371836     
  0.183210101302293     
  -4.09017074188932     
  0.193261374978065     
  0.191995692340675     
  0.200415475672182     
  -5.81578152933349     