 TITLE="euler solver on unstructured grid" 
 VARIABLES= "X" "Y"  "P" "Rou" "U"  "V"  "nuT"
 ZONE NODES=       11173  ELEMENTS=       18178  ZONETYPE=FEQUADRILATERAL
 DATAPACKING=BLOCK
 VARLOCATION=([3-7]=CELLCENTERED)
 -0.307083118807939     
 -0.302253903650073     
 -0.302453103653887     
 -0.306827408167447     
  -7.78018088404790     
  -8.64766929833017     
 -0.301271794649082     
   8.92533764005936     
   9.03667437981502     
 -0.312184916080910     
   8.31816770553988     
  -9.45556918431596     
 -0.310046759883884     
   8.43915373830842     
   8.86132318284134     
   5.73959890434945     
  -9.30246966667097     
  -10.0596952609454     
 -0.317617649181604     
  -9.26949459126086     
   9.37326782008086     
 -0.314467159730284     
   10.0057816852010     
  -10.1817507785156     
 -0.317935181150551     
  -9.44428901219342     
   9.27957241965927     
 -0.311361968799751     
   9.47184571314768     
  -8.86160275427875     
 -0.307058825553200     
   6.37722570085633     
  -6.79273231918831     
   8.13672014104629     
  -6.79541952697227     
  -7.46804438071364     
 -0.301896422183951     
  -6.28220000998115     
   8.33090344110536     
 -0.311407656309677     
   6.02391642690362     
  -8.37231734892871     
   7.14983690266482     
   5.82178895609057     
   5.91116282711329     
 -0.306781158184349     
   5.06140119254703     
  -7.89277709245385     
 -0.313669173463689     
   5.47618711856925     
  -6.28945812934518     
   6.97953943909886     
   6.00845942703668     
   8.40520752813165     
 -0.306068986906004     
   8.89044060499718     
  -5.88906734348967     
 -0.310788902686725     
   7.24771891339671     
  -8.95085679261556     
 -0.300553412960440     
  -6.45634643514785     
  -5.57147629742277     
  -9.40562283633450     
   6.78610207339956     
  -8.75171339404360     
   6.46309356119913     
   9.15839790329499     
  -6.11774828689836     
  -6.78649148434339     
  -6.73185459012599     
  -9.77233472287223     
 -0.284001786051882     
 -0.283462680298780     
 -0.278711141426505     
 -0.289499403109908     
  -7.85603389097866     
  -7.22368694013137     
 -0.288181755978264     
  -8.35729037405737     
  -7.31959410023559     
 -0.284361594440926     
  -9.30895524020970     
  -6.92916014184385     
 -0.289750861581869     
  -8.85494648706289     
  -9.44433546485809     
 -0.293828111535389     
   9.63600165519779     
  -10.0474283836122     
   7.59558662344881     
   6.64948218443411     
   5.65284433080744     
 -0.297469821732907     
   8.53039115757957     
   6.12491798733138     
 -0.284352144427242     
  -9.96727560897641     
  -8.89390359365403     
 -0.280268567060698     
  -8.39267959802029     
   8.47436571071030     
 -0.278037272432963     
  -8.92959054413407     
   8.30985643826236     
 -0.273626118289278     
   9.05691511280837     
   8.80024731448559     
   9.14619427386591     
   7.89225877604499     
   6.81401586189061     
   5.19681711065110     
  -9.60218431443317     
  -7.89172681551434     
  -5.89549427551309     
  -7.90357929466273     
  -7.86031886600168     
 -0.287881216090617     
  -8.42832433938390     
   7.68780027977362     
 -0.286636211650866     
 -0.281243960887203     
 -0.285757540981876     
 -0.291940409300443     
  -7.58566351020148     
  -8.69797504716462     
 -0.290977030021163     
  -7.19720076516752     
   8.14533820125479     
 -0.287366047138257     
  -7.09816107958712     
   7.62660191832901     
 -0.292865316642405     
   7.83613937836041     
   7.56323171591031     
 -0.288961824415538     
  -7.31566644007113     
   5.86875159278518     
 -0.298190146449351     
   7.03847878757412     
   7.72774934658316     
  -8.84120758746125     
   5.58565008651865     
  -8.08692575343464     
 -0.300128163728711     
   7.18451499107584     
   5.26943753342688     
 -0.283077050330351     
  -8.19995111419095     
   7.43744739740312     
   6.31216673126940     
  -7.82108808506798     
   9.41455842143358     
 -0.276377378197659     
   8.06264001174404     
   8.82630752650682     
 -0.281141764325895     
   8.30745572123424     
   7.00977161536460     
   7.14561688723334     
   5.08379244399250     
   6.98114885471127     
  -9.46019610453484     
  -7.39043131698936     
  -7.35494411562398     
 -0.289913692205435     
  -9.51480030443718     
  -5.41385382117281     
 -0.296613429713985     
   6.63953519213269     
 -0.293657709976990     
  -7.71435358744196     
  -6.13906097699468     
  -5.72303269147298     
 -0.296889464880106     
  -5.20858012945838     
  -9.06560626125879     
 -0.294470482798611     
 -0.291915663775816     
   7.60339787309052     
  -8.96526188006203     
  -7.60223803891179     
   7.76712777996167     
 -0.295467101428913     
   5.13527739460114     
   8.72473959992254     
 -0.306966387844903     
 -0.299469607046138     
  -8.46490075454071     
   9.52619524416640     
   8.45425819911372     
   5.33420341699309     
 -0.304784348294550     
  -6.75469638649842     
   5.50577331165530     
  -10.0951428683029     
  -6.80325611972024     
   4.86284835986863     
   7.39849747507673     
   6.90581206846745     
  -7.17686458386905     
  -8.33454187150249     
   6.73928133112565     
 -0.298392087610057     
 -0.302539212091180     
  -5.42871019119030     
  -6.54220897306668     
 -0.305295790367254     
   6.29890532535333     
  -9.54651198802531     
  -8.35874410506333     
  -10.1149181019160     
   6.44956842062247     
  -8.29332855617022     
  -5.82349798337627     
  -9.93172574893887     
 -0.298578702742530     
  -10.0407347687498     
  -7.11822124763806     
 -0.305101113433989     
  -9.18085652252767     
  -1.91201453352915     
   6.61431738716808     
   6.02212354795213     
   5.19203342058441     
   6.24142156608667     
   4.69952583217824     
  -1.34696203324186     
   4.83314251688333     
  -1.76321224168657     
  -6.55344973154570     
  -7.87942963189734     
  -6.69253119552658     
   9.97033407784354     
 -0.275973518499091     
 -0.271100770643046     
   6.56349730038484     
   7.81135733591997     
   9.04385196496473     
   6.03397120074299     
 -0.271657629471581     
  -9.97698417711121     
   7.47466182812946     
 -0.277916329099012     
  -7.92761601504900     
  -9.31025657202115     
 -0.272174626300629     
  -5.95065880844525     
  -7.77820923802091     
 -0.267387604595684     
  -7.36688396937869     
   5.65461257355777     
 -0.264064913608929     
   7.98032617696022     
  -10.1069587374220     
 -0.258835530333253     
   8.14133788362271     
   6.62095127649120     
 -0.278912759563369     
   4.71411572954098     
   8.19175979813296     
 -0.265300419509428     
  -8.41970084223884     
   8.77948472807034     
  -10.4806355938039     
   7.51440558300252     
   5.41878850263082     
   8.08588779808210     
   5.27060487880414     
   6.49129313100940     
  -9.46977981998918     
  -10.5278990702806     
  -8.91563572861042     
  -6.70256838097479     
  -9.39032574604270     
  -5.89960450324646     
 -0.272855943729071     
   4.86810469785496     
 -0.268144936908467     
  -6.77773155288921     
   1.84356494117789     
  0.466700564651700     
 -0.268369679056260     
  9.501139338429049E-002
   9.83149761635360     
 -0.274432565480596     
  0.108678752186009     
   1.51150704166243     
 -0.268537900302885     
  -3.92898646224553     
   4.57099594658355     
 -0.263945795900919     
   9.36650268468419     
  -5.02421354608797     
 -0.260130232329438     
   9.00950823378822     
   8.91881885463864     
 -0.270585409621359     
  -9.96524369344190     
   1.35735141194140     
 -0.255492347103428     
   1.79544132948123     
  -9.88997936100070     
 -0.262148543797660     
  -9.89147253728822     
  -4.68459790273411     
  -3.37578978389384     
  -4.43436988873734     
  -9.77516953973307     
  -8.47982160052786     
   3.40705844148123     
  -4.09093644533599     
  -7.21224017612559     
  -5.22063998738596     
   9.30018175567285     
  -2.36982910359554     
  -10.0218839422958     
  -5.20391372922566     
 -0.301881529020509     
   6.75211658572551     
   6.90851972960395     
 -0.309299137298407     
  -9.48410191912510     
   5.08026111688110     
 -0.304613018309223     
   8.82605786036038     
   1.46154657380666     
  -6.61040663944975     
  0.866288303605903     
  -5.10228653641020     
   5.46513774976096     
  -9.55265016569020     
  -9.87672718133424     
   4.38027096167413     
   7.61631331079632     
   5.64205362081819     
  -10.0403005364341     
   7.59406891474991     
  -9.46384010720059     
 -0.296795020605897     
   6.08076707038053     
   7.98086448852417     
  -10.1063390586088     
  0.519421847412668     
  -9.01282995326114     
  -10.5515308085189     
 -0.261305411274346     
  0.793839332725213     
 -0.303468359866853     
  -10.1187746065412     
  -1.09035680110524     
 -0.297438965492748     
   3.52137423402787     
  -4.09951138087223     
  -6.08585972508164     
   5.06810604702065     
  -3.42421817758620     
   9.60256515558110     
  -3.79637140969032     
   7.19785712663148     
 -0.243863091162527     
  -10.4688197246847     
  -3.80658770459191     
 -0.257639357414491     
 -0.251530447082371     
   2.28034276375039     
 -0.251576167169394     
  -9.48816242869197     
   6.42666579819431     
 -0.257564964163991     
   9.88762299400938     
   7.00226716255181     
 -0.253044625306539     
 -0.224113304268401     
  -9.92683653575754     
 -0.245928349360402     
   7.20594634836397     
  -7.75169547168181     
 -0.243158971995689     
   6.81630607327914     
   9.52893840150181     
 -0.245401428936884     
  -7.06462857783696     
  -6.00832111913605     
 -0.233493514543207     
  -7.45426885292179     
   9.54939374498503     
 -0.255184942652047     
   9.53757787586586     
   9.30974438325735     
 -0.259813075839159     
   1.43619754898597     
  -8.23354940309146     
   5.30618150289622     
  -10.0833269991837     
  -8.62318967817630     
   6.51887945451912     
 -0.574595565215197     
  -10.0715111300645     
   4.91834461939368     
  -1.84015010609095     
  -3.89166363702454     
  -7.84390912800663     
  -1.04843690383944     
  -5.68831716750661     
   5.14802553754135     
  0.950818872909637     
  -5.62101747438381     
  -2.09393616780405     
   5.23507995291457     
   5.84561524683558     
 -0.266074984635701     
  -6.21064462698891     
   2.92405949925033     
 -0.253920598807873     
  -9.92114866330452     
 -0.247997607087036     
 -0.247702202062893     
   4.32535678339003     
   8.93480954025233     
 -0.253573804450501     
   4.22738961729877     
   6.49199431171370     
   3.31895621642339     
  -10.0006159153495     
  -8.53097602185149     
 -0.248798316373681     
  -8.14133574676666     
  -5.95618993690413     
 -0.241909732071063     
  -5.59305142539138     
  -7.36205519659698     
 -0.239435539203946     
  -4.50401286341494     
  -10.5397149393997     
 -0.240987989229815     
   6.20673107057543     
   9.41322475376944     
 -0.229577810305016     
  -8.71974064953991     
   9.11786054887325     
 -0.250416713803419     
   6.10137106465553     
  -9.05924791974725     
 -0.255496579656556     
   4.79090841067244     
   5.78252919317519     
   3.56425790897648     
  -9.40247022834597     
   8.84866064352598     
   8.66384078833624     
   9.05027592804901     
   9.01845937828711     
  -8.92061629693632     
   9.25873349654700     
   7.98522689853365     
   3.85169099974446     
  -9.59470578904907     
  -9.98880004623037     
   1.49310632691474     
   9.53564056223517     
  -9.91962104501337     
 -0.261416736368082     
   9.33861170957102     
   8.86646067717426     
   7.29816000468878     
  -8.15783391003519     
   5.01532531118670     
  -9.60068572317950     
  -6.03914318586611     
   5.45254337286527     
 -0.322180762095333     
   4.98612712340818     
   1.16131202056302     
 -0.306207135417757     
  -5.80349409625765     
   5.25774497293981     
   5.64738524802464     
   7.31013745153800     
   5.74719987537310     
   9.54375070661200     
   9.93488647048604     
  -3.64566969289010     
 -0.877988978441201     
   3.13813368790751     
 -5.648919568438993E-003
  -5.72954416685319     
   3.41719341805696     
  -3.79075442271575     
  -5.05944790362069     
  -1.03077830983008     
   2.89162415829071     
 -0.325129710673540     
   5.43414727964047     
  -9.51099863788130     
  -4.52019565959301     
  -1.71735305855859     
  -6.67055480579230     
 -0.241295498387650     
   9.04681758879955     
  -9.02602381069235     
 -0.246332383023593     
   4.62729985252788     
  -6.97241492151215     
 -0.315268783999937     
   4.92254456753205     
  0.611330969671728     
 -0.249901236782269     
  -2.77023542229019     
   8.75887514876822     
 -0.255699119580928     
  -6.58277464642731     
  -9.79211050343080     
   2.81947980771717     
   3.03899011756344     
  -5.54168534070599     
   5.19217529345295     
   3.69564125413402     
  -10.5042673320422     
   9.33969922153126     
  -4.04652113703142     
  -6.09792594983781     
  -3.36819257456062     
   2.12102046101059     
  -5.66302501917038     
 -0.830884564655022     
  -9.01908318550345     
  -9.86822915168308     
 -0.320440638375346     
   8.57073871070832     
  -7.50484454344039     
  -5.42072553331861     
   6.59517582384250     
   8.23044989200093     
 -0.312334708422634     
  -5.77105310616966     
  -4.33631809657539     
   2.66467506545383     
  -4.18584338516122     
   4.58521091529719     
 -0.326616947206254     
 -0.639440326106138     
   2.51256624266001     
   4.51068738473037     
 -0.424096818472266     
  -7.22764786065818     
   2.77188438206496     
  -7.40384397661723     
  -5.36891918080212     
 -0.228100901191175     
  -5.13898747255628     
  -1.42197196308824     
 -0.232724898048007     
  -10.0242476535879     
 -0.210631271825008     
  -5.71416290272533     
   5.14493756832634     
   4.23137261731413     
 -0.319868570361220     
   2.41469713405349     
  -10.0360635227070     
 -0.332976677709138     
  -7.17993765340062     
   4.00150207968438     
 -0.224135382059100     
  -5.65288833187513     
   5.23488386915599     
 -0.297491674298018     
   3.66577608572014     
  -3.60987446503142     
   1.50506779694059     
  -3.92720292511965     
   9.43123505379336     
   2.77891585308154     
   1.82560133413618     
  -5.65413099096780     
   4.66666459573541     
  -6.28534802766730     
   4.92567249031525     
 -0.340455472830719     
   4.56642062039046     
   2.72137711861533     
 -0.229790155884931     
  0.731001290257838     
  1.047573569924548E-002
 -0.224326723629140     
  -9.50230946321175     
   1.23649595466113     
   1.50017375123288     
  0.848029831505767     
   3.13359652016765     
   9.17548880097108     
   6.03702552310947     
  0.417746981029470     
   4.51630318168355     
  -3.31436382634672     
   4.97337008266585     
 -0.218179763908213     
   1.02083543576675     
   1.89747430422804     
 -0.222289945207751     
  -10.0478793918262     
   1.05167729389612     
 -0.335882610834637     
  -10.4333721173272     
  -7.26957858843339     
 -0.331736802879311     
   2.75403577666528     
  -7.88098977125138     
 -0.324053672897517     
  -8.90071265388393     
  -3.95238938766448     
   8.85672110502812     
   7.18969773723782     
  -2.91378147670625     
 -0.343341322930719     
   4.91577644720651     
  -7.90344652850698     
  -8.85389014656806     
  -7.58651645389778     
   2.88837794917208     
 -0.353493648102381     
  -7.50692344668983     
  -10.2664729683299     
  -9.15555501327614     
  -8.83837618125810     
  -7.58504682726157     
   4.87872594734087     
   2.76295288385191     
  -9.77686832630799     
 -0.325744604768642     
  -9.59641890175089     
   3.41007211065997     
  -7.38002948461425     
  -10.4570038555656     
  -8.23577503336018     
 -0.221169670439510     
 -0.209416633790647     
  -9.85147793995776     
  -8.88491807718686     
  -8.36500340788306     
   9.89943886312854     
 -0.209566084825492     
  -8.63400787506880     
  -8.51389939458113     
 -0.194928616110559     
  -8.88006854323141     
  -9.36394442320198     
  -9.00222751532869     
  -6.71399658236560     
  -9.44909748537675     
 -0.216470787688156     
  -5.00326569638611     
 -0.205113858593870     
  -9.29819113597975     
  -8.90043204249628     
  -9.13961969315421     
 -0.204479494530786     
  -8.82286023236421     
  -8.84867269731586     
 -0.190439049046486     
  -9.00048479319698     
  -8.22026106800689     
  -5.10290867806489     
  -8.80721402519724     
  -9.40469210937002     
 -0.309064572091400     
  -6.22489982271522     
  -1.49027751148382     
 -0.299902498999595     
 -0.508450760964533     
  -2.55588359799057     
  -1.21273671609123     
  -9.24480273617394     
  -1.15126134739543     
 -0.323927543265928     
  -4.48270923593161     
  -9.61348149017504     
 -0.314290368588085     
  -5.78739508402496     
  -8.75077894609269     
 -0.314338259316191     
  -8.75616684716607     
  -5.24002041152324     
  -5.50049203765062     
   4.86964987700793     
  -9.70500471912691     
  0.728955665555333     
   5.30143927482121     
  -8.53707560730956     
  -10.2886277225982     
  -8.86940411187749     
  -5.26558935387010     
   9.94670233960521     
  -9.68858161496047     
  -9.22721409817817     
  -4.89134731454985     
  -8.87745277901914     
  -1.14454468688304     
 -0.283116071896625     
   4.97654935571658     
  -3.44931353903275     
  -9.51273770312540     
   8.46708082994329     
  -9.35814452127003     
  -9.64118419514222     
  -4.26980628837793     
  -3.61303205221374     
 -0.281028992261027     
  -8.79143755975709     
   9.12937073957918     
  -7.89579613490693     
  0.943448211801996     
   9.33569879022718     
 -0.525183354424952     
   5.30722103627918     
  -8.75442412469499     
 -0.194281815997944     
  -7.99454791623366     
  -9.53470465632959     
 -0.178997923281309     
  -9.45235487124576     
   1.17902239596925     
 -0.201479486097680     
  -7.61931073362323     
  -9.12438648742595     
 -0.189068992802364     
  -3.66541306103232     
  -5.20819175611946     
 -0.174332343653070     
  -3.75294526559905     
  -5.57947774302535     
 -0.195445892604089     
  -9.08883530412582     
  0.263648700051145     
  -9.68300071593100     
  -7.73010885281474     
  -10.3403221492243     
  -8.61916598691819     
  -8.55258957261887     
  -9.49981112105312     
 -0.327407139803149     
  -7.57259451574584     
  -4.50736586581344     
  -10.1271523585190     
  -8.63226515209357     
  -4.47744941750283     
  -8.51009722937045     
  -7.40941942076773     
  -8.87832581926334     
  -5.18262281376983     
  -8.56810353792822     
  -8.74736122118092     
  -4.83084731628076     
  -3.85401285487529     
  -5.48379685385723     
 -0.165133681522248     
  -5.29115829649209     
 -0.157120044028382     
 -0.154290263138750     
  -8.50610077154805     
  -8.75268139272092     
 -0.164338500210031     
  -8.38620448433154     
  -8.45896613354346     
 -0.153095095397403     
  -8.13482850167862     
  -9.24654545952321     
 -0.162438386070995     
  -8.16818835625178     
  9.670803286189544E-002
 -0.143705034523863     
  0.354437791658971     
  -8.86540903284389     
 -0.139094178297434     
   2.67879370479797     
  -6.15267132111176     
 -0.139499947634476     
  -5.54841437949888     
   1.71839213075355     
 -0.178546669818962     
  -8.52156164199993     
  -8.47507067221074     
 -0.177807888022373     
  -4.32370309786566     
   9.95851820872438     
  -9.12219515870247     
  -8.26403004299896     
  -8.56855247394160     
  -3.03266492117131     
  -8.63052242509202     
   4.16831943857020     
   9.03244373515476     
   2.96345501195046     
   4.27009764971286     
  -8.49050964291709     
   9.30234871501580     
  -4.23437816256806     
 -0.189237535529829     
  -8.99874206445362     
  -4.92871098107815     
 -0.132649462001555     
   2.09263520770427     
  -4.35569807315423     
 -0.120528036571127     
   4.96257423378567     
   1.22301215716707     
   3.22270218339958     
  -9.48245733995342     
  -6.13638171232629     
 -0.122980525125947     
  -7.76122647612679     
  -8.38040665545352     
 -0.111784415164965     
  -6.93723790566816     
   1.92750854974033     
 -0.115197925714621     
  -8.47478825597131     
  -8.20474710269826     
   1.55326547277802     
  -8.26230278519240     
  -4.95427992342417     
 -0.101784734352797     
 -0.641646596291393     
  -8.18927345447628     
 -0.101539997223599     
   3.95897961107086     
  -8.44171081763402     
 -9.943254023606929E-002
  -8.54179038135504     
   4.27925442868116     
  -3.82486629041671     
 -0.831368514895649     
   3.59701831968653     
 -9.494128131737670E-002
  -7.96857815784595     
  -8.17373740429061     
 -8.226777774850885E-002
   4.61030644044728     
   4.24511697782942     
 -9.106740591989802E-002
  -5.45838522505859     
   3.05586013410842     
  -3.27119092378940     
  -2.62319855931986     
  -4.58629759715801     
  -3.47597781750839     
   3.28258324509122     
   3.43017627117890     
   1.38813881491627     
  -8.07120278103279     
  -8.50836345574984     
 -7.484500640751979E-002
  -3.23974006322961     
  -4.48486576242385     
 -0.170482462408900     
 -0.161945351992636     
  -9.01604828714646     
 -0.159783360127605     
  -1.50567035224869     
  -10.4451879864464     
 -0.170395641530106     
  -2.48289516423632     
  -2.23344304870463     
 -0.159327810450806     
  -2.52516631688126     
   1.16426045284365     
 -0.169479710617094     
  -1.53779476949285     
  -4.61425976453304     
 -0.149518979411455     
  -3.17231612194593     
  -1.23084540384102     
 -0.144060555559489     
  -2.85551206922833     
 -0.874712876799658     
 -0.146203131194221     
  -1.84476031147541     
  -1.19756581701880     
 -0.184170223683212     
  -3.41775028865846     
  -2.10837577565030     
 -0.184295068984323     
  -4.02293549972218     
  -2.21820892365312     
   1.41979861661987     
  -2.25158725682110     
  -1.87801014511081     
  -1.57105991097157     
   1.34414905390421     
  -2.59143776692202     
  -9.41914483784742     
  -1.94448561906465     
  -2.18497717984946     
 -0.859672683421465     
  -3.20678181235235     
  -3.16983778057689     
 -0.196822417723066     
  -4.23970977935321     
  -2.55856755375942     
 -0.138333510412589     
  -2.34409132967600     
  -1.36277257856471     
 -0.125616017131961     
   4.79965641259015     
  -8.14185846132815     
  -2.86535487110671     
  -1.67546780911411     
  -1.91126563384874     
 -0.128830047778149     
  -8.34604065584392     
  -1.69676609857896     
 -0.117431605551060     
  -8.03846096975163     
  -8.38446175336081     
 -0.121631492579783     
  -7.82566752603467     
  -7.86130604029220     
  -9.12086643374208     
  -4.63737656343964     
  -7.94591127522144     
 -0.107775587890042     
  -8.14231682980318     
  -8.01797423475651     
 -0.106731504065438     
  -8.15813895215566     
 -0.550428837678146     
 -0.106501466595384     
  -2.93156456375458     
   4.66858623703242     
  -5.30048937574648     
  -6.56924553316264     
  -7.85700548203329     
 -0.100611030446517     
   4.63449384573299     
 -0.890637137912738     
 -8.754459010971885E-002
  -5.47693648825737     
  -8.10146864709790     
 -9.728632404861047E-002
  -7.99136782550595     
  -2.31479801169252     
  -5.34229617841534     
  -8.13308734275464     
   2.59088485852200     
  -9.08807007772136     
  -7.45531529682474     
  -8.78195298816909     
  -7.66724109181455     
 -0.645992111045723     
  -1.30263099414558     
 -8.165046574760695E-002
  -7.88170341878486     
   2.23092999600010     
  0.703483933053771     
  0.706023436895007     
  0.688062526293925     
  0.681303246692278     
   3.26406008965278     
  -1.02109303790739     
  0.729345033936334     
  -7.25416385891256     
  -7.54013412896149     
  0.706281121387532     
  0.690303461373112     
  0.708114192335594     
  0.684479587740488     
   3.95762654567155     
  -6.90637775073562     
  0.731097479169326     
  -7.23873034279936     
   3.86686311360373     
  -8.03331764855427     
  -1.55743111340177     
   4.90354341606143     
  -8.68883809851037     
  -5.59955226450837     
  -4.20949043157803     
   4.49820029927618     
  0.671531405311641     
   3.72847764898932     
  -8.20154821082361     
  -7.77360951517540     
  0.669139587846833     
  0.500247864494510     
  -1.19565327107048     
  -1.12261444811178     
  -6.54011680937981     
  -4.15964608583110     
  -8.41229670937586     
  -2.89932321615126     
  -6.94954553468167     
 -6.279379252156472E-002
  -7.88793256323025     
 -6.813893311831984E-002
   1.59725523702803     
   4.32084263413774     
  -8.51770720520807     
  0.300530358703072     
  -7.64974518266269     
  -2.13061318771229     
  -5.20276586680933     
 -0.305520942392038     
  -10.0860072986115     
  -9.89638387977104     
 -0.362013303991674     
  -9.46243732923584     
  -7.57111802367408     
  -3.54691918120749     
  -9.90821360998070     
  -9.76428842092112     
 -0.341167900809959     
  -9.29714346546918     
  -6.54347051712942     
  -1.57161114257915     
  -2.00793289552587     
   4.00399896407189     
   4.54121051716747     
  0.101223093133014     
 -0.612083161691018     
 -0.128864533160347     
   2.13662496842469     
   2.97674163487248     
 -0.123407174593458     
  -7.81683602851753     
  -3.58016610259669     
 -5.225100175199567E-002
  -9.12090103209066     
 -4.311012673281329E-002
 -5.868374545660764E-002
 -4.850848893638727E-002
   9.22176791838748     
 -0.305688890250029     
   3.93204532811874     
  -9.59423128011453     
 -3.321770046144030E-002
   6.13642529498901     
 -2.330227247024226E-002
 -3.977741011602155E-002
 -2.873903183178327E-002
   3.88866267069355     
  -5.36416511092975     
  -8.81531284274341     
   6.12923917943428     
  -3.51328959822523     
  -9.40939393321571     
  -6.92183004970132     
 -1.314171724256592E-002
  -5.90129607822254     
 -3.378500347267776E-003
 -1.973394924675412E-002
 -8.840572850391647E-003
  -7.69651528387269     
  0.664826322265524     
  0.651793592621512     
  -4.29744465641012     
  0.661305386165773     
  -1.02821449354118     
  0.649246758168284     
  0.700277818399257     
   4.06837574458752     
  -2.06492368694695     
  0.696008448138358     
  -7.52460551710163     
  -7.81446001855789     
  7.021840833985099E-003
  -7.49319599431638     
  1.664042037779202E-002
  4.100953332740582E-004
  1.116537724195793E-002
  -6.38805801570156     
  2.726235348061633E-002
  -4.74520576862719     
  3.675454208112023E-002
  2.064316423119332E-002
  3.127819478072513E-002
   4.32619590463912     
  4.756507308156848E-002
   1.97149831253478     
  5.692177075619152E-002
  4.094960700368792E-002
  5.145459003257189E-002
  -7.55560405869331     
  -4.97984886601327     
  -8.87658309680857     
  -7.66044576985888     
  -1.67268534013731     
   9.70595400883320     
   4.90861231830500     
 -0.169198893079944     
  -1.65332160075694     
  -2.68285213485568     
 -0.159411530797516     
  -5.31672723812134     
 -0.272692392249977     
  6.791895463960773E-002
  -7.73520781675469     
  7.716374840272600E-002
  6.131749674987522E-002
  7.171554051822779E-002
  -7.28151733663251     
  -2.65310200053764     
  -7.48942164731853     
   9.47849853027003     
  -6.50445916116926     
   4.01269236201532     
   3.32363188139778     
 -8.729556140976279E-002
  -7.84142179134080     
   2.30267650981623     
 -8.571706615071401E-002
  -4.16485214146959     
  -6.89090670181663     
  8.831942059036808E-002
  -5.03098672687479     
  9.744742133693034E-002
  8.174153118120704E-002
  9.202736414578640E-002
  -5.00541780742556     
  0.108763146870231     
  -6.57404398674211     
  0.117786149933662     
  0.102217825798633     
  0.112402833576810     
  -6.75982533491099     
  0.129241956651479     
  -6.76484600391888     
  0.138165297841934     
  0.122737713932858     
  0.132827204141333     
  -6.32458811987874     
   3.33031396402901     
  -3.97826565813820     
  -8.26789447867849     
  0.678662456084125     
   3.61897367776069     
  -7.87241859812887     
  -9.93205703537511     
  -5.05655554466861     
  -3.66928977859705     
  0.660343075527726     
   3.59657713677549     
  -3.36031412934869     
  0.680254391223045     
  -3.70037017125285     
  -3.33060681176807     
  0.645598748358193     
  -7.45434416051624     
  -4.04119851083351     
   4.32085373313312     
  -7.52756343250533     
  -1.38671171953924     
  0.674431474946503     
   3.51434361908189     
   3.70257690014776     
  -4.69410824024218     
  -4.19821842013439     
  -7.09189444649016     
  0.655452937522888     
  -7.29477879305399     
   4.06334013674449     
  0.675143635703493     
  -7.01262364697720     
  -7.27980218254005     
  0.641797874615813     
  -7.62314818607209     
   3.77052895267805     
  -6.88213795538591     
   4.84918007594087     
  0.628881993430265     
   2.99031854658381     
  0.631583977473309     
   3.28350549149600     
  0.143298786370462     
  0.153287905909949     
  -2.40363413167459     
  0.149753907766311     
  -4.01110831860294     
  0.158573369875859     
  0.163889739476573     
  0.173795006145761     
   3.35177637574674     
  0.170288208369563     
  -6.81653963082809     
  0.179020056819595     
  0.190850049604141     
  -4.45858867978583     
  0.199501303729801     
  0.184515146053733     
  0.194342796158808     
  -6.15894224887241     