 TITLE="euler solver on unstructured grid" 
 VARIABLES= "X" "Y"  "P" "Rou" "U"  "V"  "nuT"
 ZONE NODES=       11173  ELEMENTS=       18178  ZONETYPE=FEQUADRILATERAL
 DATAPACKING=BLOCK
 VARLOCATION=([3-7]=CELLCENTERED)
 -0.306898311221366     
 -0.301908923128218     
 -0.302460678206981     
 -0.306371139282477     
  -7.45140027334956     
  -9.09278278887638     
 -0.300570867849929     
   9.47123466250913     
   9.42848573171530     
 -0.311863701712298     
   8.72953576788202     
  -9.90570231399271     
 -0.309348548885128     
   8.80923350043383     
   8.43379550794895     
   5.14188261198768     
  -9.63756366690452     
  -10.4713612785587     
 -0.317050734335348     
  -9.68446808413999     
   8.95190584121344     
 -0.313345690867396     
   9.44734478850864     
  -9.58414573419469     
 -0.317972269088964     
  -8.91261688389198     
   8.89874462113675     
 -0.311344675267365     
   9.01819330977256     
  -9.34669080679731     
 -0.307209231114272     
   5.85186520511833     
  -6.44807168197244     
   8.70131215633327     
  -6.36982987751036     
  -7.09503277162232     
 -0.302256532881906     
  -5.89309473230175     
   8.84314736121379     
 -0.311651247166679     
   5.53650634226421     
  -7.84339949801992     
   6.57837762542933     
   5.28106373990969     
   6.33495380542693     
 -0.307267018636514     
   5.53213879555744     
  -7.33337456113425     
 -0.314252953014641     
   5.92375707578857     
  -6.82643578380377     
   6.44752523043451     
   6.47709263216373     
   8.88098263568916     
 -0.306923064983718     
   9.33219213586992     
  -6.45928125265889     
 -0.311872302067956     
   7.73864705849130     
  -9.48020918986231     
 -0.301269411706066     
  -5.93084475393057     
  -6.09938184989917     
  -9.09285260636601     
   7.25101338108969     
  -8.18928764605680     
   5.89457650325135     
   8.59188558952739     
  -5.68421001417106     
  -7.30645450911032     
  -7.29634820052029     
  -9.41984590582933     
 -0.286606982780071     
 -0.285732982834792     
 -0.281216001153754     
 -0.291913986289581     
  -7.38478910463031     
  -6.69148324406308     
 -0.290945686962732     
  -7.86539023472156     
  -6.83322450870718     
 -0.287331722834226     
  -8.81208163129017     
  -6.53832751713931     
 -0.292829609846788     
  -8.33936303815815     
  -8.97850714218156     
 -0.296595142433759     
   9.03838294328454     
  -9.60164849778431     
   8.19363687856246     
   6.18783322485363     
   6.04508130007277     
 -0.300665450932577     
   8.13515298874159     
   5.67835753519874     
 -0.287942429771618     
  -9.47250545508423     
  -8.41710725153072     
 -0.283045326877733     
  -7.93654280923004     
   7.98495788108803     
 -0.281105901618096     
  -8.48853626775743     
   7.85523426137527     
 -0.276346277777317     
   9.54966730693595     
   8.33496832213175     
   8.65559704391171     
   7.41262315616907     
   6.31757952301989     
   4.79423967990878     
  -10.1005786426055     
  -7.45622730459340     
  -6.23077170152933     
  -8.44045846284870     
  -7.34934099318563     
 -0.289892864253603     
  -8.00794866464811     
   7.09013277763610     
 -0.284045305825164     
 -0.278753124522921     
 -0.283501493841945     
 -0.289540387540962     
  -8.01356140396571     
  -9.09839032074466     
 -0.288227603331483     
  -7.65096608548840     
   7.72550180092753     
 -0.284410236936189     
  -7.51574812107664     
   8.04858123401610     
 -0.289801159258263     
   8.31858922590392     
   7.15316710942107     
 -0.285545998839964     
  -7.80666159953805     
   5.45511657340108     
 -0.295488785552595     
   7.46873673152701     
   7.28289936833029     
  -9.20608188515885     
   5.20527344730147     
  -8.50447979410582     
 -0.296840023045077     
   7.57650710931681     
   4.75309986116961     
 -0.280314398787418     
  -8.57968405800709     
   7.89380193544898     
   5.92457101212267     
  -8.28210728556822     
   9.08337377238048     
 -0.273670992847283     
   7.54532358056728     
   8.49202961647794     
 -0.278087139068155     
   7.74055330928556     
   7.53128870237258     
   6.71054025051889     
   5.47056537794703     
   6.58085786194228     
  -9.03372979461044     
  -6.97558343432699     
  -6.90433395544407     
 -0.287916514180655     
  -9.89325514250034     
  -6.01184943756478     
 -0.294667102017039     
   7.04369101925240     
 -0.291947049211866     
  -8.07383034735208     
  -6.61018536903417     
  -6.21485383674741     
 -0.295494157845423     
  -5.70326368083344     
  -8.69502148900058     
 -0.296362242695858     
 -0.293640989480914     
   7.05680013551357     
  -8.55994817529790     
  -7.99950483794519     
   8.14521040266431     
 -0.296877243279997     
   5.55858541792005     
   8.19813310500951     
 -0.305998717216472     
 -0.298414451593978     
  -8.08025605305361     
   8.99993130468015     
   8.09254781824477     
   4.77582807253727     
 -0.303502697720750     
  -6.29040236915927     
   6.01259176560638     
  -10.4368925431693     
  -6.23230233778769     
   5.37188483878614     
   7.02322176014641     
   6.59066758260359     
  -7.51628221728568     
  -8.81560259263791     
   7.11128026349501     
 -0.299462215747552     
 -0.303877337200444     
  -5.85042137195950     
  -6.89817922040989     
 -0.306397549533151     
   5.98756057542970     
  -9.26334631159680     
  -8.87897344614669     
  -9.83645549406056     
   6.79378288773059     
  -8.85832914137025     
  -5.30499557549943     
  -9.62221122577277     
 -0.300190274729384     
  -9.63845990580059     
  -7.49516908135056     
 -0.306946993990631     
  -9.75117296666381     
  -1.59078024123689     
   6.28012457280215     
   6.33694341032315     
   4.84231308150781     
   6.61945848704962     
   4.31975826698678     
  -1.01766895872774     
   5.38385114906692     
  -1.41618819829945     
  -6.95512112430335     
  -8.38174983444776     
  -7.01005902693309     
   9.48181352389798     
 -0.272905861407597     
 -0.268192501372451     
   6.13819690507101     
   7.46151361964119     
   9.40419837706953     
   5.68402390688846     
 -0.268421838944193     
  -10.5517883278005     
   6.97001303232532     
 -0.274487583310689     
  -7.52787601975214     
  -9.90834976886166     
 -0.268594884422438     
  -5.38903291112190     
  -8.10018173973541     
 -0.263999971293362     
  -7.89865252209901     
   5.33732669498060     
 -0.260191123580538     
   8.31838984084097     
  -10.4254029647062     
 -0.255544947802994     
   8.44782262373044     
   6.93568493367424     
 -0.274959224539846     
   5.03579728520551     
   7.86979225843485     
 -0.262198667356112     
  -8.75601722547281     
   9.10466622422799     
  -10.0620450501975     
   7.19792865967104     
   5.98760819805180     
   8.53509620500860     
   4.79520543654922     
   7.02597208350523     
  -9.59662927777529     
  -10.0160867363450     
  -9.22585584453408     
  -7.18501505528613     
  -9.49095520758149     
  -6.28668202356386     
 -0.275937345556034     
   5.46608664665464     
 -0.271066710901590     
  -6.27900268891424     
   1.26868663652138     
   1.04339503343093     
 -0.271618993880378     
  0.692873806136148     
   9.61681607019753     
 -0.277875144144093     
  0.685680317545089     
  0.953254400258388     
 -0.272131183638222     
  -3.34697896726767     
   4.95255915599532     
 -0.267346735772108     
   9.30261993507465     
  -5.62219940443510     
 -0.264017150158195     
   8.92234600235635     
   9.04608768681026     
 -0.274546649884091     
  -9.99150150616409     
   1.02958121148832     
 -0.258795810320871     
   1.48116253991544     
  -9.99946458345380     
 -0.265263505239057     
  -10.0299347515716     
  -5.26314425089299     
  -3.65189399666281     
  -3.86364946603835     
  -9.82988445874645     
  -8.13093964485519     
   3.97845337664222     
  -3.53760986466818     
  -6.90914095133428     
  -5.78632589253657     
   9.09029520405508     
  -2.03794899394747     
  -9.96077826879217     
  -5.41012707624821     
 -0.300202203646074     
   6.38768503344452     
   6.31083271137673     
 -0.307691319531274     
  -9.63764544852938     
   4.70225683422759     
 -0.302396376120183     
   9.12857986646296     
   2.04091985658462     
  -7.05262068774200     
  0.311463670082809     
  -5.27426356365364     
   5.02031809034027     
  -9.44489720826799     
  -10.0452984729180     
   4.95428729097801     
   8.17852030730804     
   5.99764850193122     
  -9.92208522891438     
   8.12275932049641     
  -9.07020915420925     
 -0.299106594248889     
   6.59103092350352     
   7.59615689566205     
  -9.56307530420748     
   1.05987900070439     
  -8.41519563480563     
  -9.99310757941878     
  0.316363523922983     
   1.35099156811847     
 -0.306080349259050     
  -10.4139133862431     
  -1.43977393581736     
 -0.295093449167191     
   3.73440863473158     
  -3.94206455390389     
  -5.60251611322553     
   5.07399434078762     
  -4.00861570711865     
   9.83942664960319     
  -4.36411251588829     
   7.53788395917014     
  8.109052150380591E-002
  -10.0735346286606     
  -4.40454306904932     
 -0.253978350532296     
 -0.248052641114347     
   2.84377189861780     
 -0.247761942982692     
  -9.78697420546572     
   7.02468677917339     
 -0.253635312026479     
   9.56224057313977     
   7.56834466150505     
 -0.248863230472089     
 -0.800816580108739     
  -9.88545529909706     
 -0.241971326994180     
   7.80398684543276     
  -8.34974963634291     
 -0.239492992764921     
   7.41433681230308     
   9.22844133001817     
 -0.241055017447155     
  -6.46694546915719     
  -5.66365319856925     
 -0.229637674150130     
  -6.85659550228688     
   9.89112975225918     
 -0.250488881276255     
   9.90261933072229     
   9.44957685577607     
 -0.255562631480198     
   1.13293897186480     
  -7.63589556854625     
   5.62486039348267     
  -10.4483821216324     
  -8.02554560167594     
   5.92118267824705     
  -1.13143181955647     
  -10.4598717000955     
   5.26962810894802     
  -1.27160744546435     
  -3.40048356022283     
  -7.24624553541656     
  -1.37716961306038     
  -5.98759411428431     
   5.22450553848496     
   1.52760166560110     
  -5.30372326883541     
  -2.44404151168281     
   4.95653425172798     
   6.38126068109456     
 -0.261487659409717     
  -6.71641804702960     
   3.11533562005003     
 -0.257594417058186     
  -10.1381114727727     
 -0.251487923099503     
 -0.251528930040996     
   4.13858507725152     
   9.13753849910828     
 -0.257516257408024     
   4.06575381548461     
   6.92911797561856     
   3.14126317065077     
  -10.5288091708742     
  -9.12904970260229     
 -0.252992279225985     
  -8.73939966947260     
  -5.94339910681085     
 -0.245878971721236     
  -5.68439459508707     
  -7.96009960321322     
 -0.243113604400121     
  -4.32622366846478     
  -10.0045971578819     
 -0.245346581723568     
   6.01352541481273     
   9.31983741323854     
 -0.233445247730143     
  -8.53108701907281     
   8.97200998357806     
 -0.255125437329294     
   5.92806932158792     
  -8.86017948768259     
 -0.259759929290082     
   4.84646785895060     
   5.60048258997047     
   3.36223321780467     
  -8.80484566793531     
   9.11111176168598     
   8.73239459545868     
   9.28991378462313     
   9.08700179656416     
  -9.51869973573198     
   9.47592778827222     
   8.58328691169215     
   3.67095126810930     
  -9.78992198709985     
  -10.5402987493373     
   1.05245907726497     
   9.38498821837538     
  -9.77793743745402     
 -0.266017271952958     
   9.59941383660118     
   8.91604094621621     
   6.70048274450642     
  -8.23072718945670     
   4.56505529607433     
  -9.47029401212191     
  -6.46849540410085     
   5.55383512679324     
 -0.322914282531592     
   5.09131131388812     
  0.584073714143936     
 -0.303332618005472     
  -6.40149947069448     
   5.85573667978433     
   6.24538671291402     
   6.84027460775986     
   5.51842084994320     
   9.27864781299585     
   9.51628225928732     
  -3.47627023279260     
  -1.42014697275668     
   3.34676052449564     
  0.439163334908767     
  -5.64700505822858     
   3.75994537390747     
  -3.54171993990968     
  -5.46624384619994     
 -0.683712771545903     
   2.34298430200146     
 -0.324529092306908     
   5.14233352226828     
  -8.93428477663244     
  -4.26853876768519     
  -2.06422864447094     
  -6.54133770213969     
 -0.246268943222845     
   9.21171049261226     
  -8.84976273814447     
 -0.241371150208158     
   5.07490707463125     
  -7.57044957008354     
 -0.313532626853249     
   4.95330397880522     
  3.952911842458917E-002
 -0.255625397494085     
  -3.32676268168068     
   8.90467415887235     
 -0.249987620986636     
  -7.18079953695385     
  -9.19449570106500     
   2.24498617668024     
   3.38289899028742     
  -5.73077923925004     
   5.24112966388627     
   3.11854197156655     
  -10.0390658932712     
   9.34875847906211     
  -3.86582491744184     
  -6.19693894170381     
  -3.12479966882012     
   1.58827108402499     
  -5.21448085414684     
 -0.508943101924472     
  -8.68460001411037     
  -9.77970258744766     
 -0.321962837616463     
   8.26736834843862     
  -8.07587760221620     
  -5.78747656942108     
   7.09456413260165     
   7.93414547128382     
 -0.308931662211676     
  -5.83618740927228     
  -4.58539943413602     
   2.50064746505204     
  -4.41589053508600     
   5.07163882149303     
 -0.325085677923316     
 -0.982702559755468     
   3.01174017425875     
   5.03470043970002     
  6.957626017213112E-002
  -7.53611207960028     
   2.98194239491037     
  -6.84059884857144     
  -5.09595954724175     
 -0.232666823503408     
  -4.85093912504837     
  -1.06694176733322     
 -0.228170516531492     
  -10.5058300139480     
  0.255755249532711     
  -5.31025438629719     
   4.82618686008713     
   3.98094214538919     
 -0.317452004331925     
   2.23756191386547     
  -10.4943404354849     
 -0.333956773742494     
  -6.90834465182711     
   3.42615231085996     
  0.322248752568709     
  -5.28085222690697     
   5.21478348853215     
 -0.293342025405815     
   3.10758196026425     
  -3.15447016765766     
   2.05722015716151     
  -3.45869363265676     
   10.0060255368903     
   2.59476069328629     
   2.38270872120035     
  -5.92338638580946     
   4.25716479463444     
  -5.68764540289782     
   4.35703927114372     
 -0.339816947410849     
   4.01709878108339     
   3.20155649204778     
 -0.224407845303228     
   1.18687261170070     
  0.495549134074545     
 -0.229720406990205     
  -10.0373252557043     
   1.66853904194948     
   1.03687457875941     
   1.27985280540266     
   2.81161603130229     
   8.89386233475081     
   6.63503674604370     
  0.858021985822921     
   3.93685103552847     
  -3.64074856508378     
   4.54720864391126     
 -0.222238710175916     
   1.43000684792519     
   1.45038015307384     
 -0.218242029943393     
  -10.4828508570218     
   1.50679683382574     
 -0.337569673480524     
  -10.1080033640499     
  -7.55361574432763     
 -0.331904996320785     
   2.39870133303373     
  -7.58513679739378     
 -0.319550862047914     
  -8.59722588146754     
  -3.50609578635640     
   8.25908287702517     
   6.84677972995794     
  -2.33744735110313     
 -0.340975482727610     
   4.37970786866189     
  -8.16234095894269     
  -9.07508263283848     
  -7.85798322815693     
   3.38837116907823     
 -0.354659888231344     
  -7.22111547952082     
  -10.2702936575943     
  -8.88841769497167     
  -9.03719991639954     
  -7.28137154881595     
   4.36415451856899     
   2.38442244242534     
  -9.51571911718200     
 -0.328127810857053     
  -9.59085851797686     
   3.06894944873579     
  -7.28246957019763     
  -10.0850242071237     
  -8.50447090020484     
 -0.216541146677299     
 -0.205178459024707     
  -9.85485488185568     
  -9.15084806571519     
  -8.45750417397140     
   9.55075099467665     
 -0.204554911265006     
  -8.67871101798506     
  -8.58185642408634     
 -0.190505863396962     
  -8.94125079083356     
  -9.17678821903693     
  -9.04199779157768     
  -6.40922079519797     
  -9.23875934046084     
 -0.221110271598721     
  -5.43074117466479     
 -0.209362414748481     
  -9.35501996843457     
  -9.18873078215357     
  -9.30346324661897     
 -0.209501037335913     
  -8.99927618977144     
  -8.56919395066267     
 -0.194871452802857     
  -8.98095202180264     
  -8.46658818372248     
  -5.55070322960700     
  -8.96122010045285     
  -9.38212017209255     
 -0.312373686483134     
  -6.34409224065826     
 -0.908213129149174     
 -0.303903476533564     
  -1.03775649584300     
  -1.97989923333236     
  -1.76515293260805     
  -9.18244602134906     
 -0.585009872238754     
 -0.327569928936948     
  -4.69725416119916     
  -9.54456092096755     
 -0.317190584886395     
  -5.91319618133859     
  -8.53888875565977     
 -0.316510225424950     
  -8.77945801872917     
  -4.76400209344899     
  -5.96399631712369     
   4.85399416946812     
  -9.50745657069842     
   1.24539974777216     
   5.83420811612352     
  -8.77083540830263     
  -10.2487506982970     
  -9.11296534927686     
  -4.81188885996006     
   9.50479268082420     
  -9.92849581446481     
  -9.10265660087921     
  -4.40539628998634     
  -8.75678627039216     
 -0.674592063171448     
 -0.278120902010104     
   4.68373272470942     
  -3.17303067808818     
  -9.58609159232841     
   7.86943284389549     
  -9.21371561964674     
  -9.48838050400613     
  -3.81047893165227     
  -3.39209683721483     
 -0.285773175739645     
  -8.92303164844365     
   9.16031959348654     
  -7.89106392426099     
   1.47905650570549     
   9.38847015550287     
  3.199745426434292E-002
   5.46810981756504     
  -8.71841224852990     
 -0.189145768117220     
  -8.02923203411443     
  -9.54672885226798     
 -0.174401187095056     
  -9.48706454425225     
   1.69463433335442     
 -0.195534170525037     
  -7.91475851599135     
  -9.14274479232178     
 -0.194214641216263     
  -3.98137662845957     
  -4.70948662478807     
 -0.178937928546229     
  -3.19536343394988     
  -5.08648817516552     
 -0.201401148667735     
  -8.86647088966877     
 -0.320338538744936     
  -9.50633416159035     
  -7.54850655354862     
  -10.1984837932699     
  -8.48015447677039     
  -8.80871812474089     
  -9.71878014232293     
 -0.324137098738732     
  -7.30945243300484     
  -3.98908360165433     
  -9.87845578978978     
  -8.61766524751491     
  -3.93472657219378     
  -8.51690997842725     
  -7.16574823875222     
  -8.88020501947328     
  -4.66159985827449     
  -8.84660084117920     
  -8.83008665763437     
  -4.29997820188638     
  -3.34020651767787     
  -4.93070146220239     
 -0.170412812690721     
  -4.85977562677547     
 -0.161882722779398     
 -0.159711448040242     
  -8.69508913289533     
  -8.65736646890659     
 -0.170316200217907     
  -8.35512547499621     
  -8.58077537405320     
 -0.159245665559979     
  -7.89782625409932     
  -9.24349179306588     
 -0.169386645123180     
  -7.90879965674884     
  0.627701681993731     
 -0.149442376202807     
  0.872357979688935     
  -8.96915941480075     
 -0.143995528890783     
   3.19778530089707     
  -6.45326174121578     
 -0.146114155818435     
  -5.07957293261924     
   2.25468469608178     
 -0.184097119442170     
  -8.73295269186405     
  -8.22802340105637     
 -0.184210032691501     
  -3.90899429490410     
   9.49330310236109     
  -8.87744429232181     
  -8.25436423893161     
  -8.87116533168353     
  -3.60544195992456     
  -8.55661947271466     
   4.55074160477642     
   9.02120960137431     
   3.52865945806632     
   3.75768893787377     
  -8.65709321132507     
   9.13368090899703     
  -3.75228203241661     
 -0.196722525118997     
  -8.91990624513399     
  -4.46575402993611     
 -0.138258422225131     
   2.62977666633777     
  -4.54382038870564     
 -0.125548848006528     
   4.46883847349704     
   1.69980951861630     
   3.76549219457398     
  -9.24973274311390     
  -6.41450479711132     
 -0.128752434762930     
  -7.55665570407524     
  -8.20206142101448     
 -0.117356503273577     
  -7.21147228759539     
   2.44481827375450     
 -0.121545627895055     
  -8.61896492703243     
  -8.42870546728487     
   2.06972630348112     
  -8.19333269977997     
  -4.51364079644616     
 -0.107695494424076     
 -0.176572802102302     
  -8.39084737154285     
 -0.106662431285959     
   3.45975799662354     
  -8.21704999840341     
 -0.106406442439167     
  -8.24997020635324     
   3.72240605583424     
  -3.62734987577708     
 -0.385293479494976     
   4.14059133398826     
 -0.100535195161175     
  -8.25444059931218     
  -8.35291161763990     
 -8.747385791074858E-002
   4.10818515697850     
   3.71003480283329     
 -9.720281607884015E-002
  -4.94513642444170     
   3.57566274565129     
  -2.80675670599196     
  -2.16301343720498     
  -4.11377692861980     
  -2.92900345335586     
   2.73905162386387     
   3.95076188572914     
   1.88476791099308     
  -7.87966601023498     
  -8.45587247489165     
 -8.155846029871726E-002
  -2.75289731852785     
  -4.20653351145420     
 -0.165211736319664     
 -0.157190663828437     
  -8.86907105100421     
 -0.154370040800333     
 -0.951622566505119     
  -10.0965137855868     
 -0.164426324512845     
  -1.92686775900269     
  -1.65350842310351     
 -0.153185064522333     
  -1.99804098541948     
   1.72023191630886     
 -0.162539764031258     
  -1.00643211243368     
  -4.16427915355336     
 -0.143788981154799     
  -2.64059554436696     
 -0.712917282186962     
 -0.139166296216121     
  -2.31236501424490     
 -0.370939384832351     
 -0.139596078080301     
  -1.29996379029022     
 -0.657369910403226     
 -0.178628857843026     
  -3.22356191899109     
  -1.55325542744178     
 -0.177901992722961     
  -3.79993914218784     
  -1.70451555675319     
   1.87350836587306     
  -1.76017990496547     
  -1.35548160800999     
  -1.06196512057621     
   1.87959272591853     
  -2.10891703774986     
  -9.59291338998000     
  -1.46654125977252     
  -1.64901565212386     
 -0.376633978986712     
  -2.69751027913709     
  -2.61500824644389     
 -0.189347096514147     
  -4.03878363258769     
  -2.05372895545572     
 -0.132731336612717     
  -1.91945136278872     
 -0.933862604912109     
 -0.120601370061154     
   4.58330761362748     
  -8.15360506567170     
  -2.34706603231835     
  -1.25526405741525     
  -1.41100483543684     
 -0.123064444416523     
  -8.19075786052061     
  -1.29850015324266     
 -0.111865257865999     
  -7.86993965492555     
  -8.29407969649009     
 -0.115289721490754     
  -7.97264193127850     
  -7.58957591244082     
  -8.83335166822886     
  -4.20962447251704     
  -7.81897080359844     
 -0.101870075990357     
  -8.27670865268250     
  -7.99182906413867     
 -0.101614285897793     
  -8.31489820558402     
 -1.483405841407248E-002
 -9.953272174742631E-002
  -2.45805989976148     
   4.23474590447837     
  -4.93420889447884     
  -6.85648253975322     
  -8.04875464391918     
 -9.502201396151629E-002
   4.15552040823734     
 -0.363875686163348     
 -8.234276268213761E-002
  -5.12931105576558     
  -7.88685285144203     
 -9.115563096914608E-002
  -7.90399093684504     
  -1.86791194297373     
  -4.95554915719145     
  -8.02354586970070     
   2.09557579541012     
  -9.16742365242624     
  -7.53672149428407     
  -8.54724714536340     
  -7.70572841116334     
 -0.219735553765135     
 -0.894940003643067     
 -7.494093108636148E-002
  -7.97654502445440     
   1.74648302536347     
  0.706260152636403     
  0.708103032272820     
  0.690289779806398     
  0.684452833172206     
   3.76484483720376     
 -0.594017402850738     
  0.731091570082770     
  -7.51582924012413     
  -7.74447923368437     
  0.703540207576693     
  0.688110727282762     
  0.706070012235146     
  0.681364205553623     
   3.71190526562286     
  -7.13587070914825     
  0.729387517947147     
  -7.47802469436673     
   3.59727619246862     
  -7.66544268265429     
  -1.07190626997296     
   4.43280931937687     
  -8.52384193560212     
  -5.17534646606974     
  -4.79110496742359     
   4.92472276646771     
  0.669189400103449     
   3.48845331706856     
  -7.91977305939702     
  -7.79029028123877     
  0.671515168453979     
  0.996284788844819     
 -0.700798409425261     
 -0.524782529249632     
  -6.78260970387115     
  -3.63216665912954     
  -8.21082546696812     
  -2.40344545516570     
  -7.24167729428671     
 -6.806677064486835E-002
  -8.12445824253386     
 -6.286923403851158E-002
   2.07490149177621     
   4.86559421954027     
  -8.40356706373990     
  0.766071719474027     
  -7.62853334543109     
  -1.78436843613872     
  -4.65762501458124     
 -0.300311755290041     
  -9.92156733667285     
  -9.67508537599436     
 -0.361095968863281     
  -9.20764143928022     
  -7.82021101767269     
  -3.04662488597435     
  -9.98888070184896     
  -9.51926922579735     
 -0.343876102492852     
  -9.55275152329019     
  -6.53868025004958     
  -1.10903418278789     
  -1.57439979220250     
   3.55054767478601     
   4.30908149011226     
  0.658850849538861     
 -9.746669473042846E-002
 -0.120573067712200     
   2.63495185111888     
   2.44919069537876     
 -0.131587085310118     
  -7.87583227272498     
  -3.10246963086208     
 -5.859631570159368E-002
  -9.02065324133391     
 -4.843509932996356E-002
 -5.234120972658358E-002
 -4.318581081087727E-002
   9.18683760208188     
 -0.310894058940411     
   3.40986956303553     
  -9.54955473160551     
 -3.968775222824511E-002
   6.70829766495339     
 -2.866461648232623E-002
 -3.330918641887130E-002
 -2.337799112794044E-002
   4.33239295653790     
  -4.79165228599877     
  -8.55822054801399     
   5.53153264511736     
  -2.99051002044505     
  -9.32526453551567     
  -7.17369329281211     
 -1.964333994271272E-002
  -5.60684440898454     
 -8.765309346075870E-003
 -1.323314987583866E-002
 -3.454069862722422E-003
  -7.53781788862294     
  0.661370606450662     
  0.649298214542490     
  -3.86042230511025     
  0.664794313261706     
 -0.640661942755391     
  0.651774719147255     
  0.696084880749018     
   3.84012293854132     
  -1.67584079087110     
  0.700236354001299     
  -7.70656153669136     
  -7.93628556763347     
  5.014787924529419E-004
  -7.63038554316406     
  1.124132102175473E-002
  6.930643498190022E-003
  1.656517295881237E-002
  -6.12408670133739     
  2.073515727316573E-002
  -4.40694074911292     
  3.135466028377320E-002
  2.717156017137289E-002
  3.667978037139188E-002
   4.73067221427038     
  4.104205714108646E-002
   2.44999346063114     
  5.153143414724470E-002
  4.747483968169342E-002
  5.684764078956046E-002
  -7.78232830156337     
  -4.56152756322744     
  -8.81915924892606     
  -7.52458970964049     
  -1.29956072197076     
   9.73889283954902     
   4.67057937585397     
 -0.159686901261062     
  -1.21184690213406     
  -2.26723833654434     
 -0.167972709027222     
  -4.90766239263528     
  0.246831192522709     
  6.141026338439559E-002
  -7.62734657271406     
  7.179262984123976E-002
  6.782942456755270E-002
  7.709038757204888E-002
  -7.26523832588027     
  -2.21519632556688     
  -7.59747095626333     
   9.96006722303786     
  -6.76975814481082     
   4.51504311465906     
   2.74693960445065     
 -7.816505056452343E-002
  -8.01077677891289     
   2.82083714341145     
 -9.486081445303599E-002
  -3.90018872831656     
  -7.09803011912421     
  8.183448359731985E-002
  -4.65730107413728     
  9.210457311481919E-002
  8.823072713438154E-002
  9.737495752278401E-002
  -4.60941432882121     
  0.102310840928648     
  -6.79373480508556     
  0.112480045071517     
  0.108675415490193     
  0.117714703229120     
  -6.49220647733357     
  0.122830675261566     
  -6.53884543105302     
  0.132904302169057     
  0.129155305832965     
  0.138094986476571     
  -6.08735501675785     
   2.85667662302379     
  -3.55418348607360     
  -8.13700283589794     
  0.674506836658227     
   3.10970432248045     
  -8.08657552630713     
  -9.91161002929609     
  -4.70518772028470     
  -3.25846981423744     
  0.655536933376149     
   3.06497214199343     
  -2.96275638434327     
  0.675231173581449     
  -3.31190248022647     
  -2.91075691480964     
  0.641866475050109     
  -7.23743196010457     
  -3.66195649382951     
   3.85483884915453     
  -7.52776430958113     
 -0.998807816633438     
  0.678620980888025     
   3.95729163104270     
   3.28405890323585     
  -4.31116613022576     
  -3.69338950712316     
  -6.99640595658424     
  0.660292032111197     
  -7.17447406705298     
   3.65598859533209     
  0.680200797563864     
  -6.87357409817413     
  -7.20421871991952     
  0.645562389134045     
  -7.54070416463541     
   3.38277229582492     
  -6.87286473728000     
   4.51146284717698     
  0.631562453734236     
   2.76253425498946     
  0.628935083935575     
   2.76480690671768     
  0.149668449491766     
  0.158504296938597     
  -2.02357763882091     
  0.143391583776808     
  -3.60947200726267     
  0.153364789016004     
  0.170204047278318     
  0.178952330844924     
   2.90081866462337     
  0.163982269629263     
  -6.90583334307823     
  0.173871567924710     
  0.184607314281351     
  -4.15576380238647     
  0.194418952916741     
  0.190767281920177     
  0.199435010296163     
  -5.87763211879954     