 TITLE="euler solver on unstructured grid" 
 VARIABLES= "X" "Y"  "P" "Rou" "U"  "V"  "nuT"
 ZONE NODES=       11173  ELEMENTS=       18178  ZONETYPE=FEQUADRILATERAL
 DATAPACKING=BLOCK
 VARLOCATION=([3-7]=CELLCENTERED)
 -0.307089347858820     
 -0.302257168034470     
 -0.302462571618016     
 -0.306828857411151     
  -7.77464149959665     
  -8.65576067807862     
 -0.301268771677640     
   8.93520922508178     
   9.04384078764938     
 -0.312188904749012     
   8.32565571759976     
  -9.46377373715176     
 -0.310044055480130     
   8.44591969310210     
   8.85408132929652     
   5.72926902189117     
  -9.30864726515243     
  -10.0672422605862     
 -0.317617486448480     
  -9.27707534325676     
   9.36615015145575     
 -0.314457151467157     
   9.99627395038661     
  -10.1715599527709     
 -0.317945645753056     
  -9.43523443534500     
   9.27316439420288     
 -0.311371274577564     
   9.46416346589669     
  -8.87040343443389     
 -0.307070946438841     
   6.36818741295663     
  -6.78688330949501     
   8.14689601861029     
  -6.78814797986344     
  -7.46171784267053     
 -0.301912070065770     
  -6.27555396793977     
   8.34016510460692     
 -0.311421549485118     
   6.01553435043699     
  -8.36327810349217     
   7.14001210742318     
   5.81246343479039     
   5.91879492787876     
 -0.306799167334209     
   5.06983232342206     
  -7.88318716803071     
 -0.313689116485635     
   5.48422379602032     
  -6.29909157126164     
   6.97040277772284     
   6.01688279519745     
   8.41383041353291     
 -0.306093446833357     
   8.89848037894852     
  -5.89927267536705     
 -0.310817539440069     
   7.25657244393550     
  -8.96043833357341     
 -0.300575275412810     
  -6.44730810735880     
  -5.58092810474888     
  -9.40041505939228     
   6.79448401664862     
  -8.74209683557336     
   6.45329929068980     
   9.14872206041586     
  -6.11031609853757     
  -6.79584117282554     
  -6.74198537855564     
  -9.76644006605724     
 -0.284056347153664     
 -0.283511337784035     
 -0.278763775453547     
 -0.289550783165215     
  -7.84799252402358     
  -7.21455448311713     
 -0.288239236418446     
  -8.34890138511791     
  -7.31127030357506     
 -0.284422581642780     
  -9.30050819641241     
  -6.92250370299201     
 -0.289813924503754     
  -8.84615653772031     
  -9.43643833268132     
 -0.293885820735055     
   9.62579374537274     
  -10.0399022889514     
   7.60633394932796     
   6.64157226025297     
   5.65991378298080     
 -0.297535177495796     
   8.52370669521333     
   6.11725710831064     
 -0.284424032840813     
  -9.95888585920085     
  -8.88579667048159     
 -0.280326028783970     
  -8.38492037167120     
   8.46602414651120     
 -0.278099795950995     
  -8.92211301858354     
   8.30212128047336     
 -0.273682380046503     
   9.06585654605335     
   8.79233995985122     
   9.13785253674800     
   7.88407102784894     
   6.80549950170214     
   5.18990074784676     
  -9.61124175761925     
  -7.88431490278730     
  -5.90156994658947     
  -7.91326082303560     
  -7.85157917846853     
 -0.287925463161187     
  -8.42119484419695     
   7.67753138363195     
 -0.286599513748463     
 -0.281208855643166     
 -0.285726702314056     
 -0.291907230583529     
  -7.59341948611591     
  -8.70528224656291     
 -0.290937679514334     
  -7.20539946535612     
   8.13820945177587     
 -0.287322957245893     
  -7.10572075883160     
   7.63425511731820     
 -0.292820491883761     
   7.84486203294567     
   7.55625677513721     
 -0.288910697339282     
  -7.32452324574041     
   5.86166159119877     
 -0.298151863496103     
   7.04625936178318     
   7.72016800459703     
  -8.84789444623274     
   5.57913598380620     
  -8.09451536948066     
 -0.300079625810903     
   7.19162741208976     
   5.26052366389974     
 -0.283037223526456     
  -8.20687937592553     
   7.44569902735988     
   6.30554815006693     
  -7.82943355391447     
   9.40902722020087     
 -0.276338333699285     
   8.05379514547601     
   8.82070379443113     
 -0.281096745296983     
   8.29774675776547     
   7.01915551336146     
   7.13818938035782     
   5.09074828293367     
   6.97432775536415     
  -9.45299139173999     
  -7.38336695956695     
  -7.34725001144962     
 -0.289887532373515     
  -9.52174667991296     
  -5.42453285028904     
 -0.296588370539167     
   6.64684461428393     
 -0.293636702277242     
  -7.72091078609347     
  -6.14753216762715     
  -5.73185486230434     
 -0.296874100407578     
  -5.21743673954277     
  -9.05937169028695     
 -0.294512825767895     
 -0.291955002210581     
   7.59402410796483     
  -8.95841372538667     
  -7.60945607400284     
   7.77401367281031     
 -0.295501008976894     
   5.14287705900937     
   8.71575186198011     
 -0.306958851641118     
 -0.299460301601685     
  -8.45840048943701     
   9.51723826374124     
   8.44816075924859     
   5.32455258211411     
 -0.304771225410864     
  -6.74674321314890     
   5.51485240905417     
  -10.1014619291666     
  -6.79342951363220     
   4.87194660405950     
   7.39212899070443     
   6.90048540203891     
  -7.18305258187326     
  -8.34325548969448     
   6.74602855797623     
 -0.298420108461994     
 -0.302572071955540     
  -5.43629084172428     
  -6.54866835537722     
 -0.305324580322650     
   6.29362672166719     
  -9.54182896663664     
  -8.36814700051086     
  -10.1103352970834     
   6.45581829331175     
  -8.30351644934050     
  -5.81456316112530     
  -9.92659144029803     
 -0.298616247189771     
  -10.0339732257644     
  -7.12506716482272     
 -0.305142978008095     
  -9.19116525353580     
  -1.90642668976930     
   6.60864688081454     
   6.02784351153578     
   5.18604606486612     
   6.24825956666286     
   4.69299508709669     
  -1.34121508761566     
   4.84297238318929     
  -1.75716645710712     
  -6.56071282385582     
  -7.88850291599864     
  -6.69831945271182     
   9.96205428180613     
 -0.275928110877472     
 -0.271058014448462     
   6.55622367999280     
   7.80544865335971     
   9.05046548410598     
   6.02800584076593     
 -0.271609133091994     
  -9.98739636723172     
   7.46602149424298     
 -0.277864633998680     
  -7.92083381293079     
  -9.32105757377062     
 -0.272120099687371     
  -5.94096985941077     
  -7.78410913438948     
 -0.267336307241003     
  -7.37645909579489     
   5.64920964778736     
 -0.264004967739452     
   7.98651517182503     
  -10.1128684853601     
 -0.258785675048783     
   8.14697673399953     
   6.62668820673031     
 -0.278851870146001     
   4.71991594229687     
   8.18635288090516     
 -0.265254083132628     
  -8.42587268303750     
   8.78547193717292     
  -10.4736008206238     
   7.50907427759380     
   5.42895481162177     
   8.09403382216851     
   5.26241068289394     
   6.50089239428724     
  -9.47230193059945     
  -10.5192270453978     
  -8.92136413941537     
  -6.71125599361349     
  -9.39238449305810     
  -5.90659087535287     
 -0.272918531857681     
   4.87876664289085     
 -0.268204573601067     
  -6.76917377340604     
   1.83351627310542     
  0.476852461664160     
 -0.268435080401029     
  0.105523921946521     
   9.82802724716999     
 -0.274501551259905     
  0.118824997664104     
   1.50174038127969     
 -0.268609353331328     
  -3.91887683661517     
   4.57784437897289     
 -0.264013726067484     
   9.36566879878849     
  -5.03488037794089     
 -0.260206587555535     
   9.00825410856766     
   8.92133133259234     
 -0.270663394018462     
  -9.96601283358455     
   1.35163155699401     
 -0.255558302860453     
   1.78997215598332     
  -9.89220920121816     
 -0.262211391388280     
  -9.89421179911850     
  -4.69491253303814     
  -3.38074750420324     
  -4.42447427225063     
  -9.77643305014661     
  -8.47395045565484     
   3.41720793025252     
  -4.08133598897077     
  -7.20713470626132     
  -5.23074509307747     
   9.29677927751666     
  -2.36406825089744     
  -10.0211191010390     
  -5.20769928718632     
 -0.301861325970955     
   6.74591877707863     
   6.89822643893564     
 -0.309280420188550     
  -9.48709371670898     
   5.07377311876286     
 -0.304583454275364     
   8.83164818431602     
   1.47177626527517     
  -6.61838417359442     
  0.856561989050356     
  -5.10546713052699     
   5.45748710823174     
  -9.55105084727751     
  -9.87999526409686     
   4.39049656785070     
   7.62643120135493     
   5.64847862260723     
  -10.0385323550268     
   7.60359694335223     
  -9.45721270713489     
 -0.296844815065262     
   6.08992447956198     
   7.97434817873945     
  -10.0971011502668     
  0.528938369599099     
  -9.00260253572646     
  -10.5420401577848     
 -0.251158853426013     
  0.803657800947410     
 -0.303523641184279     
  -10.1242750415536     
  -1.09653272455188     
 -0.297406914611789     
   3.52522776734896     
  -4.09687020891404     
  -6.07755104339253     
   5.06836597547115     
  -3.43459676363536     
   9.60702522421425     
  -3.80646868481923     
   7.20405648142255     
 -0.238158381601174     
  -10.4621942644304     
  -3.81721641999751     
 -0.257582953662811     
 -0.251477075206528     
   2.29031745016022     
 -0.251516882936616     
  -9.49370796691559     
   6.43737653228349     
 -0.257503835703406     
   9.88220838845169     
   7.01243413948199     
 -0.252978932042485     
 -0.234257868962762     
  -9.92641548936844     
 -0.245866380620284     
   7.21668147697980     
  -7.76244768437799     
 -0.243102033919091     
   6.82702900463164     
   9.52395017572008     
 -0.245332599010634     
  -7.05434017398567     
  -6.00244777160007     
 -0.233432940657859     
  -7.44399264633383     
   9.55569572176846     
 -0.255110268318496     
   9.54428916557497     
   9.31248977806843     
 -0.259746377679003     
   1.43091100803199     
  -8.22329759103014     
   5.31194720626865     
  -10.0900553729732     
  -8.61295006337830     
   6.50857396658749     
 -0.584401712258427     
  -10.0786488167797     
   4.92467149655031     
  -1.83021270450293     
  -3.88314948014369     
  -7.83364511868198     
  -1.05424792982857     
  -5.69375360559222     
   5.14952883739601     
  0.960987264204146     
  -5.61561336536855     
  -2.10015516316435     
   5.23034507768299     
   5.85521157153745     
 -0.266002557840311     
  -6.21972710905215     
   2.92751211671015     
 -0.253993016385356     
  -9.92526877318101     
 -0.248066616143128     
 -0.247777115659805     
   4.32220709094342     
   8.93864899662890     
 -0.253650933552071     
   4.22467875573579     
   6.49987870928615     
   3.31593505307855     
  -10.0102094796187     
  -8.54175262907431     
 -0.248879719283010     
  -8.15210015672615     
  -5.95614892166600     
 -0.241986972049599     
  -5.59482973437527     
  -7.37279521202983     
 -0.239507584374722     
  -4.50102658510207     
  -10.5306336015913     
 -0.241072045045661     
   6.20352634429567     
   9.41187365989660     
 -0.229652880132513     
  -8.71669350229099     
   9.11557810788422     
 -0.250507215444706     
   6.09851296989655     
  -9.05602817310040     
 -0.255579409022758     
   4.79203293413524     
   5.77950753521144     
   3.56081659979480     
  -9.39225500807462     
   8.85354727417464     
   8.66531326761687     
   9.05476775562984     
   9.01994260220005     
  -8.93140510142246     
   9.26283723099647     
   7.99598642167612     
   3.84863272201920     
  -9.59843354828094     
  -9.99880292342521     
   1.48540643910906     
   9.53328660683153     
  -9.91743659866535     
 -0.261505675715775     
   9.34348447492113     
   8.86760588143322     
   7.28787891128380     
  -8.15936705401909     
   5.00756497706156     
  -9.59868992927333     
  -6.04687699549890     
   5.45449222763614     
 -0.322203600054293     
   4.98813000652305     
   1.15120081008477     
 -0.306166056045656     
  -5.81418532263721     
   5.26841911523902     
   5.65807158758717     
   7.30210352885656     
   5.74335563552518     
   9.53938511879511     
   9.92783461322566     
  -3.64280440291439     
 -0.887546465764634     
   3.14189791412271     
  2.170091674619873E-003
  -5.72827007801050     
   3.42332399158361     
  -3.78649373678553     
  -5.06675496805964     
  -1.02470919022563     
   2.88206907288911     
 -0.325129187328854     
   5.42918531424020     
  -9.50115434842973     
  -4.51591138856614     
  -1.72350365649268     
  -6.66848922525843     
 -0.241390371950020     
   9.04999539652238     
  -9.02320396053341     
 -0.246252774119559     
   4.63531098526450     
  -6.98314273968167     
 -0.315247995106126     
   4.92323720334395     
  0.601298350137285     
 -0.250009572498459     
  -2.78010390314100     
   8.76170842522782     
 -0.255606611131776     
  -6.59349026733352     
  -9.78190748042277     
   2.80946802199420     
   3.04512935534886     
  -5.54518038726021     
   5.19319609333249     
   3.68561070621406     
  -10.4964139330108     
   9.34014672820723     
  -4.04346963736168     
  -6.09985466599368     
  -3.36401801795875     
   2.11172092464500     
  -5.65531501350064     
 -0.825250922172038     
  -9.01348179498131     
  -9.86697754665694     
 -0.320477286512703     
   8.56567040287702     
  -7.51511414365789     
  -5.42733981391889     
   6.60415793250634     
   8.22549529110796     
 -0.312284527363041     
  -5.77237619323309     
  -4.34083043746294     
   2.66187392826016     
  -4.19001648709504     
   4.59390316306809     
 -0.326600110204348     
 -0.645494137946900     
   2.52141857853874     
   4.52003802747898     
 -0.415431816208117     
  -7.23329330771036     
   2.77566246258461     
  -7.39417141437424     
  -5.36428663170087     
 -0.228188203836231     
  -5.13408258814912     
  -1.41577490947006     
 -0.232652021051372     
  -10.0330225920057     
 -0.202439341251300     
  -5.70723910846332     
   5.13949316242883     
   4.22710099091792     
 -0.319835962784528     
   2.41165786775525     
  -10.0444291481992     
 -0.333004183328437     
  -7.17538502248717     
   3.99151172579044     
 -0.214537620627863     
  -5.64652291946405     
   5.23469209995156     
 -0.297427910883042     
   3.65607694262414     
  -3.60198049993297     
   1.51482032538046     
  -3.91908838621461     
   9.44163015983353     
   2.77576442706033     
   1.83545085795252     
  -5.65903863648934     
   4.65961018475879     
  -6.27503522928936     
   4.91582872738944     
 -0.340454756141674     
   4.55690523704028     
   2.72990200104489     
 -0.229702634460954     
  0.739037440368359     
  1.900297995745381E-002
 -0.224428460686133     
  -9.51200757869786     
   1.24412883872080     
   1.49207589201047     
  0.855646856784055     
   3.12803326180979     
   9.17082138563513     
   6.04772405993533     
  0.425499301237503     
   4.50625660231075     
  -3.32020351308442     
   4.96603224915057     
 -0.218257848411292     
   1.02805961126481     
   1.88967356907205     
 -0.222225649127921     
  -10.0558357043927     
   1.05971012596469     
 -0.335922633639138     
  -10.4279745958499     
  -7.27479593556303     
 -0.331749998104385     
   2.74787448717235     
  -7.87603232054803     
 -0.323984521183556     
  -8.89565248393105     
  -3.94466614729889     
   8.84648880067643     
   7.18389161238514     
  -2.90374024812466     
 -0.343310331499428     
   4.90650482029522     
  -7.90824146471356     
  -8.85805166880700     
  -7.59152261293240     
   2.89725628593856     
 -0.353525059107084     
  -7.50213102828084     
  -10.2668569918477     
  -9.15114168193549     
  -8.84214401290327     
  -7.57994273735189     
   4.86983106714182     
   2.75638411594308     
  -9.77257943367450     
 -0.325796551918067     
  -9.59661733862041     
   3.40418089236852     
  -7.37854229077508     
  -10.4507877082369     
  -8.24075252217135     
 -0.221095133487736     
 -0.209348595893654     
  -9.85184135473798     
  -8.88986698061333     
  -8.36688761843589     
   9.89361494464518     
 -0.209484463289043     
  -8.63506017183348     
  -8.51535675559254     
 -0.194856886434513     
  -8.88141811425139     
  -9.36094348113614     
  -9.00320446371562     
  -6.70884626322066     
  -9.44569166492010     
 -0.216559024496566     
  -5.01093454453542     
 -0.205194872915258     
  -9.29947708476851     
  -8.90577463651652     
  -9.14278191895991     
 -0.204574077311957     
  -8.82623368732053     
  -8.84403294918040     
 -0.190522842236466     
  -9.00041922205819     
  -8.22484486622429     
  -5.11093778283018     
  -8.81019306245170     
  -9.40458558921184     
 -0.309132280623949     
  -6.22718718421397     
  -1.48009161833461     
 -0.299982086756173     
 -0.517770917996266     
  -2.54583747168033     
  -1.22248486034953     
  -9.24399191975630     
  -1.14134296004817     
 -0.324001568973545     
  -4.48661899251993     
  -9.61256666903634     
 -0.314351050543713     
  -5.78978511398346     
  -8.74732429014206     
 -0.314386141116561     
  -8.75684652129772     
  -5.23181439268117     
  -5.50880956863653     
   4.86952496655984     
  -9.70183162739561     
  0.738056538073903     
   5.31096823771892     
  -8.54144826753774     
  -10.2882442843918     
  -8.87395932471019     
  -5.25777644072957     
   9.93924116941915     
  -9.69309800072719     
  -9.22530933499220     
  -4.88295593110217     
  -8.87560561912516     
  -1.13631889315022     
 -0.283037001705491     
   4.97155563802872     
  -3.44456332609776     
  -9.51432076130235     
   8.45683632832827     
  -9.35589448721260     
  -9.63879567948659     
  -4.26186372923047     
  -3.60925982746910     
 -0.281121062046726     
  -8.79402213829669     
   9.13019654364198     
  -7.89595664245078     
  0.952892584743249     
   9.33691457196626     
 -0.515405093809630     
   5.31021303936546     
  -8.75406127929940     
 -0.194197527614585     
  -7.99540435628095     
  -9.53521030111526     
 -0.178922643536205     
  -9.45325675379526     
   1.18812253124281     
 -0.201381194051635     
  -7.62473945783839     
  -9.12499081317985     
 -0.189165281564172     
  -3.67108039262877     
  -5.19958595205906     
 -0.174418684016342     
  -3.74325957614433     
  -5.57098386993286     
 -0.195556609965671     
  -9.08520695943252     
  0.253391147467353     
  -9.68019401468263     
  -7.72715511456446     
  -10.3381479669947     
  -8.61698837553440     
  -8.55735592344081     
  -9.50395349334002     
 -0.327359761981090     
  -7.56820255915646     
  -4.49839429271283     
  -10.1230931771711     
  -8.63227492933510     
  -4.46804728938229     
  -8.51047964096236     
  -7.40536469956020     
  -8.87863287076194     
  -5.17362390400790     
  -8.57326357934393     
  -8.74908539589564     
  -4.82166446754894     
  -3.84509979751963     
  -5.47424345026515     
 -0.165231577995034     
  -5.28373848905362     
 -0.157208614650084     
 -0.154390322052399     
  -8.50968545565494     
  -8.75127602779919     
 -0.164448652016767     
  -8.38591698731655     
  -8.46136844666562     
 -0.153207939010117     
  -8.13091339992457     
  -9.24677716264407     
 -0.162565540321847     
  -8.16388076117405     
  0.106045153203607     
 -0.143810324338317     
  0.363553053083197     
  -8.86750644047513     
 -0.139184630234315     
   2.68799953826027     
  -6.15814517992098     
 -0.139620521767576     
  -5.54034403831911     
   1.72787244985850     
 -0.178649749669856     
  -8.52554061163433     
  -8.47098949392782     
 -0.177925916695309     
  -4.31654653477298     
   9.95064772561264     
  -9.11817432068550     
  -8.26411518983009     
  -8.57413644738143     
  -3.04282715025695     
  -8.62948968280494     
   4.17517054215821     
   9.03252502898340     
   2.97348198923571     
   4.26122200258766     
  -8.49370000048338     
   9.29967087240540     
  -4.22603426636273     
 -0.189374951883038     
  -8.99763397378394     
  -4.92072495488924     
 -0.132752153831607     
   2.10214199969831     
  -4.35913943669604     
 -0.120620015445411     
   4.95404820375134     
   1.23143134344572     
   3.23234314717079     
  -9.47865902617309     
  -6.14146012362853     
 -0.123085782962901     
  -7.75786994422579     
  -8.37753024248740     
 -0.111885814862120     
  -6.94227267630493     
   1.93666163079239     
 -0.115313064990281     
  -8.47758424598417     
  -8.20893721032189     
   1.56239208094089     
  -8.26134539128832     
  -4.94668700293680     
 -0.101891778808798     
 -0.633491044366126     
  -8.19306959682958     
 -0.101633176442773     
   3.95032617267385     
  -8.43802213267478     
 -9.955820066625223E-002
  -8.53692421642477     
   4.26959787625434     
  -3.82151227384710     
 -0.823552790446866     
   3.60668460034330     
 -9.504254483984710E-002
  -7.97384916467175     
  -8.17713931126474     
 -8.236183253919042E-002
   4.60162213220925     
   4.23584199151616     
 -9.117806863829298E-002
  -5.44953148525214     
   3.06509186175829     
  -3.26312777213292     
  -2.61519010147671     
  -4.57813288588028     
  -3.46647004446089     
   3.27313002184633     
   3.43943331571225     
   1.39691171213704     
  -8.06808493589437     
  -8.50770333609881     
 -7.496532965417584E-002
  -3.23128202990499     
  -4.48011148498644     
 -0.170395072033006     
 -0.161866769364736     
  -9.01374289853831     
 -0.159693132945762     
  -1.49597742728405     
  -10.4393811520434     
 -0.170295968210147     
  -2.47319760104079     
  -2.22331753055846     
 -0.159224746895992     
  -2.51597811690063     
   1.17406959728146     
 -0.169362946699802     
  -1.52850160926237     
  -4.60649213937695     
 -0.149422868654556     
  -3.16306711730054     
  -1.22177893061810     
 -0.143978967472345     
  -2.84605242514184     
 -0.865884230874983     
 -0.146091500684015     
  -1.83524047653680     
  -1.18810687973565     
 -0.184078498288580     
  -3.41444220943124     
  -2.09868259822128     
 -0.184188375549039     
  -4.01913969406247     
  -2.20924736524041     
   1.42781802809029     
  -2.24301848597599     
  -1.86888277681443     
  -1.56215921579170     
   1.35360290011992     
  -2.58303569967537     
  -9.42249015860602     
  -1.93614403076499     
  -2.17562315224597     
 -0.851208062251829     
  -3.19792849466484     
  -3.16018247587509     
 -0.196697086555115     
  -4.23630862799241     
  -2.54977215467673     
 -0.138239301408574     
  -2.33669909233467     
  -1.35527499329524     
 -0.125531743528487     
   4.79600143429735     
  -8.14231623808601     
  -2.85633250394143     
  -1.66813291813553     
  -1.90253072805543     
 -0.128732672596201     
  -8.34356858807011     
  -1.68981750130537     
 -0.117337381211129     
  -8.03574669403512     
  -8.38313173682171     
 -0.121523766990444     
  -7.82849266210309     
  -7.85677202841967     
  -9.11609382438352     
  -4.63000039845998     
  -7.94392507692297     
 -0.107675103491088     
  -8.14493055439851     
  -8.01776210287913     
 -0.106644844558179     
  -8.16114635364165     
 -0.541030808839598     
 -0.106382252704404     
  -2.92333148405406     
   4.66110401241188     
  -5.29421426293082     
  -6.57449751440071     
  -7.86061866373842     
 -0.100515888475622     
   4.62621719119516     
 -0.881404886859851     
 -8.745585110977729E-002
  -5.47099475126121     
  -8.09794603866752     
 -9.718155753804916E-002
  -7.99007850335405     
  -2.30701381448138     
  -5.33566258238275     
  -8.13141277178137     
   2.58225797294790     
  -9.08974549528675     
  -7.45697640385452     
  -8.77809822668099     
  -7.66815428500413     
 -0.638519046695779     
  -1.29550455312729     
 -8.153504142081301E-002
  -7.88361386165393     
   2.22248294149248     
  0.703554447261483     
  0.706081783788963     
  0.688122914474432     
  0.681379639597326     
   3.27296393531399     
  -1.01361715229313     
  0.729398245898791     
  -7.25898746536131     
  -7.54395895014512     
  0.706254738335380     
  0.690286221434668     
  0.708100113475877     
  0.684445949175632     
   3.95342925156034     
  -6.91062507643274     
  0.731089984764933     
  -7.24316022108415     
   3.86224349316402     
  -8.02709885201962     
  -1.54894432472810     
   4.89541990162288     
  -8.68620586312740     
  -5.59226813473367     
  -4.21984433282544     
   4.50583680663206     
  0.671510962018325     
   3.72437342698756     
  -8.19684812242221     
  -7.77414266217175     
  0.669201999381572     
  0.508982948576844     
  -1.18699130775873     
  -1.11214003599686     
  -6.54458135185496     
  -4.15050210739527     
  -8.40901475734793     
  -2.89069585319422     
  -6.95489529637815     
 -6.288842224735396E-002
  -7.89233380884301     
 -6.804840209852771E-002
   1.60570089619575     
   4.33055197232557     
  -8.51596366677225     
  0.308723208845831     
  -7.64960840707683     
  -2.12459244135045     
  -5.19334361939433     
 -0.305438801570216     
  -10.0834279622485     
  -9.89279919623238     
 -0.362008351566582     
  -9.45825041469000     
  -7.57573040727557     
  -3.53823416886386     
  -9.90993743000763     
  -9.76028268341215     
 -0.341226036953017     
  -9.30192364638809     
  -6.54358826638450     
  -1.56352818367937     
  -2.00037395403433     
   3.99615149429045     
   4.53727016765182     
  0.111028543676683     
 -0.603055805511483     
 -0.128722757872972     
   2.14545081142374     
   2.96755989056331     
 -0.123554774934304     
  -7.81811435735298     
  -3.57187935492714     
 -5.236415627252412E-002
  -9.11942031878633     
 -4.320506293945932E-002
 -5.857406362719935E-002
 -4.841642075045685E-002
   9.22143850926807     
 -0.305789824614636     
   3.92298755613953     
  -9.59374204127057     
 -3.333246026305323E-002
   6.14666741469361     
 -2.339725427163681E-002
 -3.966493534663428E-002
 -2.864567912659059E-002
   3.89658285518387     
  -5.35426668338179     
  -8.81106558793163     
   6.11892149423933     
  -3.50420828771180     
  -9.40820546296862     
  -6.92647109104699     
 -1.325641239902105E-002
  -5.89630215990016     
 -3.473297288562844E-003
 -1.962028322713808E-002
 -8.746158413839756E-003
  -7.69396314540512     
  0.664786094533175     
  0.651769844063369     
  -4.28989504149855     
  0.661387127003114     
  -1.02143358900054     
  0.649311234373867     
  0.700225725487827     
   4.06448894026980     
  -2.05814787770240     
  0.696104250266611     
  -7.52803628979572     
  -7.81684272653563     
  6.907438587248540E-003
  -7.49583886481962     
  1.654602524641730E-002
  5.247302286566298E-004
  1.126064280346310E-002
  -6.38361492321641     
  2.714845579525456E-002
  -4.73940599087547     
  3.666075399119864E-002
  2.075856154647404E-002
  3.137411256118215E-002
   4.33343956228142     
  4.745187549604680E-002
   1.97997044459230     
  5.682877289227741E-002
  4.106557544461128E-002
  5.155098050011307E-002
  -7.55982275170105     
  -4.97264905122793     
  -8.87584762877354     
  -7.65829403730224     
  -1.66617794947946     
   9.70683258942007     
   4.90457952547349     
 -0.169036907489836     
  -1.64561211237215     
  -2.67562902050474     
 -0.159566944521795     
  -5.30970053638556     
 -0.263568300865157     
  6.780663705784647E-002
  -7.73355050186483     
  7.707171310736091E-002
  6.143385993762050E-002
  7.181223631715575E-002
  -7.28145590846469     
  -2.64548610755954     
  -7.49155215612781     
   9.48725638460751     
  -6.50932350269307     
   4.02164684142724     
   3.31359700649901     
 -8.713775389101074E-002
  -7.84464083339569     
   2.31185612774601     
 -8.588044617099889E-002
  -4.16032826654189     
  -6.89476032435786     
  8.820815020908164E-002
  -5.02457312352204     
  9.735650902378365E-002
  8.185812513488146E-002
  9.212420776018537E-002
  -4.99861109834204     
  0.108653081066298     
  -6.57810874730295     
  0.117696511245963     
  0.102334496131523     
  0.112499678079270     
  -6.75532959775507     
  0.129133244053856     
  -6.76108201373094     
  0.138077081086905     
  0.122854314478907     
  0.132923904020711     
  -6.32061308933416     
   3.32209085892114     
  -3.97093366268354     
  -8.26584876182829     
  0.678610352046088     
   3.61013312011357     
  -7.87642615314793     
  -9.93200414499404     
  -5.05053504708719     
  -3.66218137832114     
  0.660278970794511     
   3.58734325816974     
  -3.35342932446340     
  0.680187085138635     
  -3.69365565235093     
  -3.32332922473783     
  0.645553065693195     
  -7.45076121182023     
  -4.03465668576412     
   4.31279519199708     
  -7.52779929190961     
  -1.37993570325465     
  0.674525936112467     
   3.52223849941577     
   3.69533420644578     
  -4.68752152383670     
  -4.18947379695531     
  -7.09043477252946     
  0.655558231813437     
  -7.29288914566563     
   4.05630486839926     
  0.675253371043036     
  -7.01039578312757     
  -7.27869821101302     
  0.641883857826251     
  -7.62193421230775     
   3.76382909813341     
  -6.88218735306981     
   4.84339313662371     
  0.628948521832075     
   2.98640670529787     
  0.631556906582284     
   3.27448882722603     
  0.143415178984954     
  0.153384333893504     
  -2.39702744799087     
  0.149646688846394     
  -4.00417190404953     
  0.158486704368989     
  0.164005794533399     
  0.173891028749208     
   3.34395260964301     
  0.170182614388471     
  -6.81831967451926     
  0.178935078706419     
  0.190746201265869     
  -4.45340304476849     
  0.199418120359356     
  0.184630744789555     
  0.194438308388721     
  -6.15418729258050     