 TITLE="euler solver on unstructured grid" 
 VARIABLES= "X" "Y"  "P" "Rou" "U"  "V"  "nuT"
 ZONE NODES=       11173  ELEMENTS=       18178  ZONETYPE=FEQUADRILATERAL
 DATAPACKING=BLOCK
 VARLOCATION=([3-7]=CELLCENTERED)
 -0.306720114508216     
 -0.301699349126411     
 -0.302324905428091     
 -0.306136163380191     
  -7.37895804960761     
  -9.18214633695584     
 -0.300287137427603     
   9.58159523312969     
   9.50650106584683     
 -0.311654598626268     
   8.81197628753957     
  -9.99575101251131     
 -0.309061402478288     
   8.88296549732619     
   8.34016597359244     
   5.01400114744090     
  -9.70357095200150     
  -10.5530733244742     
 -0.316787667816507     
  -9.76723221360971     
   8.85933606759005     
 -0.312967826695487     
   9.32575835150877     
  -9.45427016445631     
 -0.317835650743820     
  -8.79689505402777     
   8.81471292084260     
 -0.311199644411766     
   8.91881104653819     
  -9.44433542739970     
 -0.307101302446000     
   5.73885914388777     
  -6.37274963206671     
   8.81594914700792     
  -6.27754477075427     
  -7.01346197212321     
 -0.302194900645075     
  -5.80868943186808     
   8.94672457413819     
 -0.311560874078560     
   5.43161472927813     
  -7.72874177493893     
   6.45535887888011     
   5.16508965508952     
   6.42109118367127     
 -0.307229523750802     
   5.62850159597510     
  -7.21254536740704     
 -0.314232852681314     
   6.01507581412560     
  -6.93612404791215     
   6.33285108043274     
   6.57258426338841     
   8.97688263858585     
 -0.306963067923362     
   9.42074079835817     
  -6.57611731161926     
 -0.311958224677238     
   7.83824865065947     
  -9.58709059823848     
 -0.301282979647477     
  -5.81777316875937     
  -6.20749477499206     
  -9.02302778228204     
   7.34537177368057     
  -8.06743472970053     
   5.77248630102384     
   8.46899147620358     
  -5.59056673003804     
  -7.41235096305387     
  -7.41160259207970     
  -9.34152995629013     
 -0.287024022959937     
 -0.286080077689340     
 -0.281614414562910     
 -0.292288579187586     
  -7.28245349779516     
  -6.57665849897954     
 -0.291394097757256     
  -7.75849784395948     
  -6.72796253435444     
 -0.287825085294076     
  -8.70371465314382     
  -6.45326636404054     
 -0.293343290286692     
  -8.22728087198694     
  -8.87658543323226     
 -0.297041638620730     
   8.90875236317979     
  -9.50365482494439     
   8.31553210863435     
   6.08805675885608     
   6.12472261930250     
 -0.301200122741405     
   8.04844127608419     
   5.58198168844079     
 -0.288565774642100     
  -9.36428035921543     
  -8.31313674648241     
 -0.283500020262681     
  -7.83712995370090     
   7.87853468095569     
 -0.281622780984220     
  -8.39204070166712     
   7.75617646642595     
 -0.276792125047387     
   9.64882954594162     
   8.23345426209976     
   8.54861944476115     
   7.30851247065441     
   6.21043727888863     
   4.70750369455155     
  -10.2006757749875     
  -7.36136730671712     
  -6.29836472256834     
  -8.54939302553708     
  -7.23867581965511     
 -0.290183741282334     
  -7.91601475956353     
   6.96137675531033     
 -0.283372103265899     
 -0.278103344341936     
 -0.282898873055242     
 -0.288904783272483     
  -8.09979906542118     
  -9.17836276451931     
 -0.287519205131162     
  -7.74280169878439     
   7.63380944118480     
 -0.283660222950109     
  -7.60004614182523     
   8.13355983384777     
 -0.289025939371123     
   8.41614662599282     
   7.06378717692210     
 -0.284698845930566     
  -7.90624637853720     
   5.36575787650784     
 -0.294787185550603     
   7.55571753990250     
   7.18615408574095     
  -9.27854027918973     
   5.12301391510474     
  -8.58832184669551     
 -0.296014560254504     
   7.65540149591065     
   4.64248799168239     
 -0.279606816610705     
  -8.65554789113297     
   7.98607111148367     
   5.84046848914869     
  -8.37517989187237     
   9.00968542918611     
 -0.272978246133248     
   7.43323802950092     
   8.41796011615736     
 -0.277319241310086     
   7.61796389454252     
   7.63740946718566     
   6.61610773135061     
   5.54931993235299     
   6.49379072738550     
  -8.94005073014754     
  -6.88527945743420     
  -6.80655071271013     
 -0.287366261997957     
  -9.96825395445572     
  -6.13472405889364     
 -0.294124464793904     
   7.12538229110233     
 -0.291455147554181     
  -8.14566924183986     
  -6.70613981257630     
  -6.31533503451900     
 -0.295066883168147     
  -5.80457844838812     
  -8.61323378867099     
 -0.296624999911814     
 -0.293870024190837     
   6.93878610936740     
  -8.47092724210281     
  -8.07931502934068     
   8.22092491502166     
 -0.297038605998922     
   5.64497394564003     
   8.08379976286655     
 -0.305656493979988     
 -0.298057297188484     
  -7.99579435810665     
   8.88530577402967     
   8.01289773959646     
   4.65637615272006     
 -0.303095658701643     
  -6.19002374450185     
   6.11631490460374     
  -10.5039347891269     
  -6.10954693861879     
   5.47636483858853     
   6.94120801382282     
   6.52148043978732     
  -7.58416104094312     
  -8.91264249546975     
   7.18618650154798     
 -0.299550986913809     
 -0.304020394169221     
  -5.93634195522110     
  -6.96981552249162     
 -0.306489814872211     
   5.91944544493330     
  -9.19966229298009     
  -8.98421167207769     
  -9.77349904323690     
   6.86299737984954     
  -8.97298063947656     
  -5.19367837225128     
  -9.55282983044688     
 -0.300392441856663     
  -9.54958745019567     
  -7.57094045791202     
 -0.307195307453563     
  -9.86653553622235     
  -1.52258469526586     
   6.20707749203253     
   6.40019124040990     
   4.76665753738863     
   6.69585632658124     
   4.23802882702780     
 -0.948041001002115     
   5.49707866776423     
  -1.34265498154454     
  -7.03633078193130     
  -8.48345218332388     
  -7.07356994933896     
   9.37489688685603     
 -0.272137579499729     
 -0.267459838388300     
   6.04607775125710     
   7.38464264026719     
   9.47561574398973     
   5.60793842601867     
 -0.267620278184569     
  -10.6677299069511     
   6.86084951189390     
 -0.273642738823092     
  -7.44049452628520     
  -10.0294752746325     
 -0.267721000422702     
  -5.26861974519656     
  -8.16413115130581     
 -0.263168525197075     
  -8.00675969803478     
   5.26825897705889     
 -0.259259293361765     
   8.38561999189115     
  -10.4875552773445     
 -0.254737726447544     
   8.50836105337368     
   6.99864273601708     
 -0.274003937431296     
   5.10107728834763     
   7.79859105965171     
 -0.261428086727787     
  -8.82268162178307     
   9.16883347257386     
  -9.96955322347982     
   7.12818585727397     
   6.10436562412079     
   8.62557313818709     
   4.69317324247671     
   7.13508690060905     
  -9.61891479821274     
  -9.90403517635014     
  -9.28682551756750     
  -7.28308660623639     
  -9.50778138777481     
  -6.36512991153649     
 -0.276459255050052     
   5.58920625761711     
 -0.271557303669452     
  -6.17139643524588     
   1.14736116445426     
   1.16405193705577     
 -0.272178133558949     
  0.818136083627821     
   9.56735614938419     
 -0.278472036326264     
  0.806564182336975     
  0.835564290959273     
 -0.272762338958930     
  -3.22321219205758     
   5.03045469771823     
 -0.267939663528093     
   9.28497697320771     
  -5.74524893731975     
 -0.264713666436442     
   8.89998604603508     
   9.06871132472642     
 -0.275253995070365     
  -9.99247910026575     
  0.960267713142339     
 -0.259372147204193     
   1.41447773349555     
  -10.0179199145981     
 -0.265797311271235     
  -10.0544626653640     
  -5.38227371275140     
  -3.70822929311582     
  -3.74201881585041     
  -9.83691267426111     
  -8.05396665419426     
   4.09666418030530     
  -3.41978074537447     
  -6.84233919800190     
  -5.90251650038012     
   9.04208156097546     
  -1.96731428264121     
  -9.94341970762785     
  -5.45098376110356     
 -0.299713134662512     
   6.30823766163221     
   6.18242651216256     
 -0.307213869023310     
  -9.66551925018181     
   4.62072404651926     
 -0.301793450887837     
   9.18797678197297     
   2.16168639693367     
  -7.14230177564016     
  0.194785062515435     
  -5.30799084448115     
   4.92460673662021     
  -9.41797499068297     
  -10.0761436168961     
   5.07260552172918     
   8.29289376901955     
   6.06961494061349     
  -9.89274874867450     
   8.23011817349100     
  -8.98341036674293     
 -0.299456284139134     
   6.69521504472726     
   7.51190184643358     
  -9.44462332345004     
   1.17291701547527     
  -8.28584479973465     
  -9.87127615278530     
  0.437555291970186     
   1.46740406179611     
 -0.306489972282396     
  -10.4711757655620     
  -1.51251275822753     
 -0.294466771450003     
   3.77745907012693     
  -3.90720360983028     
  -5.49844865668592     
   5.07292676157426     
  -4.12954391928383     
   9.88470918543965     
  -4.48138070884808     
   7.60588093045551     
  0.149307998528018     
  -9.98593273526224     
  -4.52813920053770     
 -0.253094035528133     
 -0.247209497406260     
   2.96082486016698     
 -0.246848268928926     
  -9.84529279994373     
   7.14710674391267     
 -0.252694725698991     
   9.48955346933297     
   7.68380820981189     
 -0.247871934557279     
 -0.921585501600535     
  -9.87227393048564     
 -0.241030288982430     
   7.92605698706045     
  -8.47157478833698     
 -0.238614211937507     
   7.53658186548656     
   9.16113282154004     
 -0.240032607034070     
  -6.33846919186520     
  -5.58868586572923     
 -0.228723490105506     
  -6.72794431343909     
   9.95841698785036     
 -0.249388744845551     
   9.97479649963278     
   9.47465615495471     
 -0.254553789620056     
   1.06872703356880     
  -7.50689455658686     
   5.68924218173348     
  -10.5203143009093     
  -7.89636967816076     
   5.79295139058867     
  -1.24787765751895     
  -10.5366938126917     
   5.34101960250444     
  -1.15161140600117     
  -3.29577016946858     
  -7.11741943501298     
  -1.44559224405435     
  -6.04773591868297     
   5.23819691378998     
   1.64805721662945     
  -5.23466906302416     
  -2.51646879551063     
   4.89577658403931     
   6.49087129948246     
 -0.260405367130160     
  -6.81960203813086     
   3.15409703073347     
 -0.258249090124520     
  -10.1790787757997     
 -0.252106826053473     
 -0.252218475425518     
   4.09747539039395     
   9.17597049259168     
 -0.258227390871001     
   4.02995683163956     
   7.01778595203129     
   3.10251333274116     
  -10.6349708833863     
  -9.25052503148476     
 -0.253758295221577     
  -8.86104990991088     
  -5.93801326043655     
 -0.246601016668724     
  -5.70099901777438     
  -8.08209966676309     
 -0.243775746029355     
  -4.28691548038251     
  -9.88765566456772     
 -0.246150649384901     
   5.97021280855508     
   9.29598939256822     
 -0.234151556636970     
  -8.48758717391715     
   8.93730038526983     
 -0.255998606534074     
   5.88897620756960     
  -8.81434262531710     
 -0.260537445952795     
   4.85593670128418     
   5.55970145219418     
   3.31827232818115     
  -8.67531992130854     
   9.16209999189553     
   8.74282800519585     
   9.33602904013277     
   9.09727176783097     
  -9.64000015305865     
   9.51724444602594     
   8.70500723020823     
   3.63132093444653     
  -9.82647969343142     
  -10.6513503951687     
  0.959426129456349     
   9.34908248324823     
  -9.74373706511325     
 -0.266862770442215     
   9.64983394299864     
   8.92240568908832     
   6.57190163373645     
  -8.24229991026635     
   4.46840589154275     
  -9.43860514366153     
  -6.55574023464352     
   5.57258847631207     
 -0.322921700678191     
   5.11109230042567     
  0.462563459474491     
 -0.302591085341809     
  -6.52419918046754     
   5.97868137919101     
   6.36815650076490     
   6.73847656209913     
   5.46786115219102     
   9.21875081028468     
   9.42403542220329     
  -3.43911026152416     
  -1.53337862047759     
   3.38906123289743     
  0.532393687300890     
  -5.62710366710563     
   3.83023050524530     
  -3.48780344743416     
  -5.54920606054313     
 -0.610503495800180     
   2.22668214152695     
 -0.324255550264904     
   5.07870460777171     
  -8.80909239538002     
  -4.21374136818252     
  -2.13615003309873     
  -6.51122574957489     
 -0.247201737558295     
   9.24216159357562     
  -8.80872113792399     
 -0.240219457168333     
   5.16661914892801     
  -7.69262454518920     
 -0.313025566674398     
   4.95751522133473     
 -8.059193850026147E-002
 -0.256711625340712     
  -3.44214659879662     
   8.93125415864809     
 -0.248674426497702     
  -7.30314942361531     
  -9.06479504288243     
   2.12329811224430     
   3.45359836134352     
  -5.76789447444508     
   5.24903191708742     
   2.99590987871992     
  -9.93679419991498     
   9.34641553756695     
  -3.82611522051916     
  -6.21492158444563     
  -3.07225749744059     
   1.47564936717796     
  -5.11789901344160     
 -0.441090340385804     
  -8.61039994339196     
  -9.75666669024158     
 -0.322136344504958     
   8.19989279995084     
  -8.19215153411250     
  -5.86188173331897     
   7.19623523773868     
   7.86830541048566     
 -0.308076572825915     
  -5.84721789977821     
  -4.63563480340660     
   2.46505889961296     
  -4.46220488537424     
   5.17150640174461     
 -0.324616406186314     
  -1.05435616774743     
   3.11522048223823     
   5.14247930151169     
  0.173237347116059     
  -7.59748034245848     
   3.02470939584383     
  -6.71918633955634     
  -5.03631187463751     
 -0.233520197952758     
  -4.78823344734665     
 -0.991885524223801     
 -0.227110274972526     
  -10.6022118598214     
  0.353600426043903     
  -5.22300446520674     
   4.75704360088058     
   3.92653296028456     
 -0.316800248875971     
   2.19933966308730     
  -10.5858323480390     
 -0.334010968429738     
  -6.84816092885401     
   3.30374798901900     
  0.436866687425522     
  -5.20031024300402     
   5.20819322437801     
 -0.292337197283210     
   2.98892574511134     
  -3.05738296496881     
   2.17226172431410     
  -3.35871565020296     
   10.1222121056746     
   2.55490172846068     
   2.49864323619697     
  -5.97725152683915     
   4.16921872705653     
  -5.55951894871742     
   4.23562294890328     
 -0.339528500206805     
   3.89989306871261     
   3.30096091591966     
 -0.223175411686382     
   1.28208627093139     
  0.597210459110348     
 -0.230748985166561     
  -10.1451432053242     
   1.75852899125149     
  0.939090825803867     
   1.36997304483299     
   2.74270930419585     
   8.83066941947892     
   6.75763162233878     
  0.950109093280048     
   3.81335310119614     
  -3.70765000708450     
   4.45563118762662     
 -0.222990333712734     
   1.51530108721124     
   1.35581235979008     
 -0.217292677252199     
  -10.5694528362566     
   1.60170729154045     
 -0.337770720901387     
  -10.0350712706095     
  -7.60984531873669     
 -0.331789588192812     
   2.32297636062874     
  -7.51955006367605     
 -0.318459951797924     
  -8.52957607566031     
  -3.41076253142404     
   8.12980212003201     
   6.77164263276133     
  -2.21533071163073     
 -0.340323698603177     
   4.26512123350661     
  -8.21301301916089     
  -9.11742112974456     
  -7.91143424932805     
   3.49185251449845     
 -0.354743778819957     
  -7.15780395317855     
  -10.2664318713327     
  -8.82827059975391     
  -9.07485721328204     
  -7.21427974925795     
   4.25409027768760     
   2.30383179266488     
  -9.45654489220083     
 -0.328479366552090     
  -9.58533486915138     
   2.99590516884494     
  -7.25867040764903     
  -10.0023122470447     
  -8.55704630600953     
 -0.215470613568182     
 -0.204195076488833     
  -9.85108856269706     
  -9.20254896266844     
  -8.47309232280365     
   9.47317395755055     
 -0.203409448756571     
  -8.68415913792357     
  -8.59223285225886     
 -0.189490375133512     
  -8.95004100153833     
  -9.13330965027145     
  -9.04624480811122     
  -6.34229393209541     
  -9.19038341766983     
 -0.221984345619018     
  -5.51806310905199     
 -0.210159712379932     
  -9.36270785880841     
  -9.24511287913039     
  -9.33365226876058     
 -0.210460632619917     
  -9.03224410798130     
  -8.50659959881750     
 -0.195713947507435     
  -8.97277055917401     
  -8.51448238950358     
  -5.64223856640015     
  -8.98949825808451     
  -9.37311816109469     
 -0.312926877744251     
  -6.36624660484527     
 -0.785541980682695     
 -0.304605835740716     
  -1.14846227775926     
  -1.85801844072659     
  -1.88038256452050     
  -9.16517817022675     
 -0.465806901874685     
 -0.328186220136116     
  -4.74018459178405     
  -9.52574992073281     
 -0.317655702259231     
  -5.93693434706994     
  -8.49050468533173     
 -0.316822687767778     
  -8.78036294449646     
  -4.66185407983058     
  -6.05864367707002     
   4.84850133273527     
  -9.46164507005749     
   1.35330972465305     
   5.94346297182619     
  -8.81595175964622     
  -10.2357202871983     
  -9.15998504620653     
  -4.71440680612081     
   9.40765591042087     
  -9.97437909927625     
  -9.07236013353327     
  -4.30132484097115     
  -8.72746415728816     
 -0.575575329959993     
 -0.276945390667333     
   4.62010143884138     
  -3.11355829015236     
  -9.59714551677727     
   7.74032699845812     
  -9.17919486055042     
  -9.45197593692779     
  -3.71226978784582     
  -3.34415035750389     
 -0.286639874270642     
  -8.94661966359154     
   9.16265999369319     
  -7.88648619630373     
   1.59088567922538     
   9.39529061084689     
  0.149014976177232     
   5.49942005138311     
  -8.70688869511739     
 -0.187981074729714     
  -8.03287068928299     
  -9.54491876693622     
 -0.173356468787055     
  -9.49004648646444     
   1.80216550211477     
 -0.194196594622776     
  -7.97322080070177     
  -9.14244861468410     
 -0.195207246422255     
  -4.04593447639770     
  -4.60259815818399     
 -0.179824035050852     
  -3.07679596064475     
  -4.98062900713638     
 -0.202560542693112     
  -8.81573800677750     
 -0.442855618384064     
  -9.46490920805113     
  -7.50693403569984     
  -10.1640599242181     
  -8.44710475386160     
  -8.85851567610807     
  -9.76035927759624     
 -0.323303040571215     
  -7.25086160352289     
  -3.87841026494394     
  -9.82173241919762     
  -8.61068488832274     
  -3.81894434347867     
  -8.51447296047018     
  -7.11131240389418     
  -8.87656675106934     
  -4.55004543189131     
  -8.90107959256996     
  -8.84345235484038     
  -4.18651988850337     
  -3.23076800929872     
  -4.81228822430909     
 -0.171444264743333     
  -4.76695953272137     
 -0.162809571476402     
 -0.160777597585811     
  -8.73083594717294     
  -8.63341443633513     
 -0.171494425799036     
  -8.34480302502277     
  -8.60246358523509     
 -0.160465229074722     
  -7.84445870748912     
  -9.23865242125697     
 -0.170769152216821     
  -7.85072500397542     
  0.738948226944639     
 -0.150579596078620     
  0.980747421049569     
  -8.98687809888998     
 -0.144959628211456     
   3.30534368186999     
  -6.51346794691696     
 -0.147437067087412     
  -4.97878905437236     
   2.36630534144170     
 -0.185179345313623     
  -8.77338784318406     
  -8.17239600491031     
 -0.185471100056675     
  -3.82011223484506     
   9.39127639863845     
  -8.82200430326731     
  -8.24858524876987     
  -8.93069823583574     
  -3.72411246975360     
  -8.53721063432996     
   4.62900005164959     
   9.01475292820356     
   3.64577426720934     
   3.64835438987134     
  -8.68815130665362     
   9.09410528035646     
  -3.64931689238324     
 -0.198205354122855     
  -8.89929630328710     
  -4.36648491853071     
 -0.139373755684844     
   2.74140526642198     
  -4.58127061172552     
 -0.126546416903750     
   4.36310308095937     
   1.79918559835763     
   3.87779144496399     
  -9.19664971415967     
  -6.47000949288185     
 -0.129906311826214     
  -7.51025511317042     
  -8.16087621293021     
 -0.118473584687928     
  -7.26579824161106     
   2.55236535196736     
 -0.122823719281824     
  -8.64533392150844     
  -8.47191847304239     
   2.17726542696847     
  -8.17512496486247     
  -4.41903764481987     
 -0.108888099176465     
 -7.880701147365854E-002
  -8.42937586917461     
 -0.107689922671352     
   3.35332861564287     
  -8.16612970842061     
 -0.107822938421294     
  -8.18492859788069     
   3.60375328200404     
  -3.58421551527144     
 -0.291423458068728     
   4.25288469606122     
 -0.101664500389666     
  -8.31073528009475     
  -8.38675243795380     
 -8.852763316228814E-002
   4.00085223430167     
   3.59595948984035     
 -9.844737235310193E-002
  -4.83508613731794     
   3.68321986032562     
  -2.70793074520070     
  -2.06537232882837     
  -4.01265887502415     
  -2.81278497520951     
   2.62364253794819     
   4.05831311206094     
   1.98822551260758     
  -7.83585642652108     
  -8.44100683071173     
 -8.293153569100206E-002
  -2.64938905895183     
  -4.14616129346182     
 -0.164029624426067     
 -0.156120585007681     
  -8.83417155325841     
 -0.153162901963889     
 -0.834816399751519     
  -10.0186917588271     
 -0.163097835026123     
  -1.80920287496817     
  -1.53094613668210     
 -0.151825252732391     
  -1.88641446254100     
   1.83622870481878     
 -0.161008257169365     
 -0.894365911276254     
  -4.06787255053440     
 -0.142520131486702     
  -2.52771200237785     
 -0.603806215134490     
 -0.138075087255615     
  -2.19723048534384     
 -0.264956712511177     
 -0.138144913206114     
  -1.18494258837405     
 -0.543606873062511     
 -0.177383806462473     
  -3.18130997374597     
  -1.43595074216843     
 -0.176478375447988     
  -3.75137451019043     
  -1.59584363280477     
   1.96795616305593     
  -1.65616372728533     
  -1.24511243162857     
 -0.954550913391348     
   1.99120541655230     
  -2.00660905454827     
  -9.62505563587051     
  -1.36548624966172     
  -1.53569165738208     
 -0.275003922074884     
  -2.58931615875200     
  -2.49728244528198     
 -0.187690963179673     
  -3.99474622661682     
  -1.94675831895251     
 -0.131494357480495     
  -1.82938688815059     
 -0.843348853477081     
 -0.119493305811843     
   4.53578348625057     
  -8.15236936701039     
  -2.23713704369206     
  -1.16643302311954     
  -1.30528763058968     
 -0.121797528271067     
  -8.15442189507166     
  -1.21425737068292     
 -0.110645280182035     
  -7.83096872906168     
  -8.27132876738112     
 -0.113905316140409     
  -7.99989210111343     
  -7.52905400304005     
  -8.76894943675500     
  -4.11786622576347     
  -7.78875679983222     
 -0.100583398514124     
  -8.30117784319144     
  -7.98270792611956     
 -0.100493300347017     
  -8.34404817938662     
  9.767073299843887E-002
 -9.802378091339366E-002
  -2.35748711529397     
   4.14169745481921     
  -4.85503326983377     
  -6.91370082703591     
  -8.08537488111370     
 -9.380492427829255E-002
   4.05302803626975     
 -0.253067756652628     
 -8.121275777120433E-002
  -5.05396519126874     
  -7.83819241099503     
 -8.982652172113965E-002
  -7.88204838337348     
  -1.77319823221401     
  -4.87206498273135     
  -7.99689349908841     
   1.99058776829193     
  -9.17992790993277     
  -7.55039748139248     
  -8.49406700584474     
  -7.71031282353412     
 -0.130103458201666     
 -0.808900832709204     
 -7.349760405875996E-002
  -7.99284328035852     
   1.64393504909262     
  0.706522527792988     
  0.708218249283783     
  0.690444101370047     
  0.684803535399753     
   3.86832146057620     
 -0.504043283907128     
  0.731126389919719     
  -7.56737693573746     
  -7.78388335125851     
  0.702644981519548     
  0.687337650023725     
  0.705319981451949     
  0.680400396273935     
   3.65860739857148     
  -7.18083336506821     
  0.728697097833597     
  -7.52489067586825     
   3.53901756847419     
  -7.58469174624435     
 -0.969438255636393     
   4.33192163322023     
  -8.48531447160060     
  -5.08389450740462     
  -4.91109325990139     
   5.01207433767689     
  0.668393562656146     
   3.43645353699434     
  -7.85699130046036     
  -7.79025597072069     
  0.671709171685928     
   1.10002151706885     
 -0.596539228140818     
 -0.398973653154235     
  -6.83046334322357     
  -3.51972361604157     
  -8.16477881737264     
  -2.29819815663867     
  -7.29974875349182     
 -6.914341116845663E-002
  -8.17044910272781     
 -6.173381713011161E-002
   2.17428552623919     
   4.97780586944173     
  -8.37577618579537     
  0.863507613404203     
  -7.62061341291057     
  -1.71083169377809     
  -4.54100659259171     
 -0.299081213013840     
  -9.88252191617016     
  -9.62420914482083     
 -0.360739295613823     
  -9.14994160068988     
  -7.86897973229849     
  -2.94015782176592     
  -10.0012877866344     
  -9.46348138867204     
 -0.344288769159011     
  -9.60210184252439     
  -6.53470451834608     
  -1.01136935413159     
  -1.48262408110298     
   3.45369080798263     
   4.25836737366656     
  0.775677561740668     
  1.066927227325881E-002
 -0.118776742818428     
   2.73842536218358     
   2.33726988491840     
 -0.133245459316567     
  -7.88464719243502     
  -3.00072372424719     
 -5.990249414599619E-002
  -8.99550010530022     
 -4.953157674485974E-002
 -5.098523209439928E-002
 -4.204820532059604E-002
   9.17532848568660     
 -0.311846175539190     
   3.29864147527710     
  -9.53583375569353     
 -4.102871840795228E-002
   6.82536898053788     
 -2.977792235591329E-002
 -3.193545235254370E-002
 -2.224132364087738E-002
   4.42362792248580     
  -4.66922369756451     
  -8.50033330233208     
   5.40347626901478     
  -2.87934555978381     
  -9.30335861825989     
  -7.22333749818101     
 -2.100004063543575E-002
  -5.54245045944181     
 -9.892791276636991E-003
 -1.186169112461594E-002
 -2.321102726344360E-003
  -7.50106124497188     
  0.660344392573702     
  0.648479195826674     
  -3.76687549457729     
  0.665225219684209     
 -0.558968196064485     
  0.652009694050190     
  0.694888052789967     
   3.79043597551246     
  -1.59335547478445     
  0.700806381758123     
  -7.74128019910867     
  -7.95826990201850     
 -8.683068243384227E-004
  -7.65573590735820     
  1.010217149136825E-002
  8.297092879995612E-003
  1.769184032133053E-002
  -6.06586003609945     
  1.935474697773005E-002
  -4.33388904338983     
  3.020621185104472E-002
  2.853046542954710E-002
  3.779768855299490E-002
   4.81348126831501     
  3.965330242021162E-002
   2.54938544982806     
  5.037582725173450E-002
  4.882385970008843E-002
  5.795459697032321E-002
  -7.82641581616552     
  -4.47159037138606     
  -8.80309250126597     
  -7.49263674128334     
  -1.22059822317639     
   9.74138845947912     
   4.61846100622799     
 -0.157616449364225     
  -1.11856776763804     
  -2.17891179857260     
 -0.169694641010673     
  -4.81951225837457     
  0.355841502071459     
  6.001526716186950E-002
  -7.60122705836378     
  7.063185786093309E-002
  6.916640587164308E-002
  7.818432686149585E-002
  -7.25851949206846     
  -2.12221116503495     
  -7.61671555880065     
   10.0566940585449     
  -6.82240788525514     
   4.61850796115398     
   2.62456176512208     
 -7.621174964565303E-002
  -8.04271051932822     
   2.92839217889850     
 -9.673831540101177E-002
  -3.84282668483909     
  -7.13831138995956     
  8.043520105290405E-002
  -4.57669580222550     
  9.094051437507673E-002
  8.955366842878579E-002
  9.845396004110273E-002
  -4.52414309676303     
  0.100909112893503     
  -6.83679397032798     
  0.111314450421092     
  0.109982433064092     
  0.118776964841848     
  -6.43304648724553     
  0.121428244988282     
  -6.48840589841122     
  0.131738906637738     
  0.130444621115245     
  0.139138732057506     
  -6.03476121347270     
   2.75589493722260     
  -3.46349375213353     
  -8.10581447984419     
  0.673327646896925     
   3.00132345993378     
  -8.12788518647816     
  -9.90281387570008     
  -4.62924840908669     
  -3.17070001674948     
  0.654229720983620     
   2.95192014500841     
  -2.87790652564438     
  0.673869421732751     
  -3.22880335963913     
  -2.82124835640662     
  0.640791030027101     
  -7.18858411256981     
  -3.58063618509035     
   3.75520488932072     
  -7.52438773729167     
 -0.916877617386955     
  0.679192759712238     
   4.04853263947317     
   3.19466056477814     
  -4.22877380078970     
  -3.58567624635886     
  -6.97317179968723     
  0.661008576796941     
  -7.14594655754093     
   3.56876678179261     
  0.680954104154782     
  -6.84124602059786     
  -7.18507110011519     
  0.646059915084893     
  -7.51996271468517     
   3.29979033732948     
  -6.86779562082676     
   4.43847873204823     
  0.631838639570694     
   2.71343509158460     
  0.628093068337414     
   2.65460213498420     
  0.150938381530140     
  0.159527979151399     
  -1.94283033145135     
  0.141990098852503     
  -3.52347176477633     
  0.152201110646673     
  0.171453025980585     
  0.179954320016624     
   2.80478063412315     
  0.162583276699750     
  -6.92145256967829     
  0.172711198227386     
  0.183212229852495     
  -4.09027013143467     
  0.193263143395885     
  0.191993862950994     
  0.200414021142298     
  -5.81587548116455     