 TITLE="euler solver on unstructured grid" 
 VARIABLES= "X" "Y"  "P" "Rou" "U"  "V"  "nuT"
 ZONE NODES=       11173  ELEMENTS=       18178  ZONETYPE=FEQUADRILATERAL
 DATAPACKING=BLOCK
 VARLOCATION=([3-7]=CELLCENTERED)
 -0.306990387491637     
 -0.302194685448506     
 -0.302324503596515     
 -0.306788142683828     
  -7.84153616269248     
  -8.55654356626040     
 -0.301282953908411     
   8.81428522685687     
   8.95586221677523     
 -0.312116852728513     
   8.23381344531498     
  -9.36311725916466     
 -0.310053697493590     
   8.36286424968834     
   8.94163379109832     
   5.85467370446317     
  -9.23269414716009     
  -9.97455052730082     
 -0.317595597453378     
  -9.18403183674214     
   9.45215134696394     
 -0.314555435050978     
   10.1113427990901     
  -10.2949368197475     
 -0.317794273335679     
  -9.54482522692651     
   9.35052793518800     
 -0.311234512700777     
   9.55703480881943     
  -8.76252972289817     
 -0.306900215032994     
   6.47781028963348     
  -6.85762396445046     
   8.02232447495834     
  -6.87621742956185     
  -7.53822487430908     
 -0.301698761664074     
  -6.35604224293310     
   8.22671569475892     
 -0.311228901638538     
   6.11718997664140     
  -8.47276269841177     
   7.25915795318939     
   5.92562706252949     
   5.82537830747675     
 -0.306556727428107     
   4.96674598313138     
  -7.99941603837207     
 -0.313422600944702     
   5.38591141485465     
  -6.18126667936540     
   7.08117874716693     
   5.91381983976763     
   8.30815685498783     
 -0.305772478686595     
   8.79987367000470     
  -5.77451125471524     
 -0.310445335501360     
   7.14817621776300     
  -8.84304566198963     
 -0.300286363596856     
  -6.55692552343599     
  -5.46536980198808     
  -9.46314799809358     
   6.69186724345321     
  -8.85858559968488     
   6.57212490572336     
   9.26590244702182     
  -6.20039337210270     
  -6.68143553881866     
  -6.61806868579075     
  -9.83751284322181     
 -0.283370352509713     
 -0.282897300044990     
 -0.278101653586386     
 -0.288903126050099     
  -7.94536001427587     
  -7.32526088654067     
 -0.287517364964411     
  -8.45046584663869     
  -7.41211859970763     
 -0.283658278804962     
  -9.40270834294543     
  -7.00307000539349     
 -0.289023930717003     
  -8.95256799644513     
  -9.53192941788551     
 -0.293160738223577     
   9.74941974353950     
  -10.1308281604968     
   7.47484183482044     
   6.73742922884088     
   5.57337062226646     
 -0.296716672752386     
   8.60449402846550     
   6.21011969571374     
 -0.283526934865566     
  -10.0603385864657     
  -8.98388474649492     
 -0.279604980070683     
  -8.47881056230477     
   8.56700209255219     
 -0.277317253412570     
  -9.01253124728817     
   8.39572449868598     
 -0.272976448251198     
   8.95625353621103     
   8.88800398058718     
   9.23878209624317     
   7.98321897536816     
   6.90873155683025     
   5.27376357782506     
  -9.50018456244468     
  -7.97401185571999     
  -5.82711454285341     
  -7.79472884047839     
  -7.95745311413303     
 -0.287364819909630     
  -8.50741112759003     
   7.80204672400133     
 -0.287025015580851     
 -0.281615361376214     
 -0.286080894447943     
 -0.292289463923679     
  -7.49836799808752     
  -8.61561404371951     
 -0.291395168468231     
  -7.10498401633449     
   8.22443791968871     
 -0.287826269856277     
  -7.01309714747178     
   7.54045255537936     
 -0.293344524891632     
   7.73801588081216     
   7.64065533338752     
 -0.289511796988538     
  -7.21608201597282     
   5.94758914463889     
 -0.298595805657727     
   6.95094934852455     
   7.81194122673825     
  -8.76577231348451     
   5.65806935773297     
  -8.00145276230965     
 -0.300648345741529     
   7.10444569901614     
   5.36871416559414     
 -0.283501108355904     
  -8.12186472764534     
   7.34462074472528     
   6.38569965173015     
  -7.72718331578256     
   9.47569936152730     
 -0.276793192208644     
   8.16093513634338     
   8.88830369993845     
 -0.281624025970551     
   8.41539456589367     
   6.90431636637028     
   7.22813237313214     
   5.00563189888875     
   7.05689600358771     
  -9.54004640433927     
  -7.46886775643962     
  -7.44042489363368     
 -0.290184415726898     
  -9.43641255368110     
  -5.29403668367498     
 -0.296871342425728     
   6.55730404174710     
 -0.293870542247677     
  -7.64045283225670     
  -6.04387683505606     
  -5.62395524398762     
 -0.297038953097864     
  -5.10915625582053     
  -9.13463833309221     
 -0.293974882571004     
 -0.291453851519305     
   7.70764152858758     
  -9.04116243377826     
  -7.52095640148276     
   7.68954768170077     
 -0.295065749079190     
   5.04991388389824     
   8.82458251822857     
 -0.307027584953123     
 -0.299551150802928     
  -8.53694889958562     
   9.62563400411465     
   8.52180285247820     
   5.44171574463766     
 -0.304908178263614     
  -6.84311912469737     
   5.40383930393093     
  -10.0237259762562     
  -6.91262346684669     
   4.76074857815655     
   7.46915222906018     
   6.96485450256277     
  -7.10713253478822     
  -8.23648195793606     
   6.66332901197681     
 -0.298056338995375     
 -0.302149043156296     
  -5.34353723520154     
  -6.46949007139483     
 -0.304950922963645     
   6.35745594746034     
  -9.59815887491770     
  -8.25297504581508     
  -10.1654016722026     
   6.37919916602421     
  -8.17878676425630     
  -5.92296726185103     
  -9.98838986582467     
 -0.298136449630177     
  -10.1155860221833     
  -7.04113691753709     
 -0.304610063529851     
  -9.06489684754731     
  -1.97435270920170     
   6.67722646174904     
   5.95771173078774     
   5.25859232129528     
   6.16449165566121     
   4.77219779316381     
  -1.41112171435196     
   4.72286415141004     
  -1.83068218123421     
  -6.47174309988513     
  -7.77738222878705     
  -6.62730535010120     
   10.0621673501347     
 -0.276460513723447     
 -0.271558484494148     
   6.64433581662125     
   7.87683967094998     
   8.96922152621981     
   6.10022087255593     
 -0.272179486790425     
  -9.85980781307152     
   7.57071411355862     
 -0.278473483328374     
  -8.00285709062556     
  -9.18878272275132     
 -0.272763873335142     
  -6.05855098780247     
  -7.71165347411674     
 -0.267941102645508     
  -7.25926361210331     
   5.71460175774077     
 -0.264715366923827     
   7.91052259501449     
  -10.0401177925747     
 -0.259373546266012     
   8.07767377915505     
   6.55630473597410     
 -0.279572647467958     
   4.64890489279200     
   8.25160292798828     
 -0.265798602007186     
  -8.35005605046043     
   8.71187740147881     
  -10.5585089773873     
   7.57345414861211     
   5.30470410307216     
   7.99419326875728     
   5.36183421198854     
   6.38346868863163     
  -9.44086648132893     
  -10.6240762426612     
  -8.85091198738664     
  -6.60492191018798     
  -9.36659959533742     
  -5.82104122944034     
 -0.272135591665333     
   4.74851960746699     
 -0.267457941135338     
  -6.87291311511281     
   1.95578808845843     
  0.353149503126525     
 -0.267618207486412     
 -2.254422511074766E-002
   9.86956350930862     
 -0.273640557984152     
 -4.782207240548064E-003
   1.62060180581551     
 -0.267718747669445     
  -4.04173448655911     
   4.49407493534423     
 -0.263166380163486     
   9.37512302565804     
  -4.90456207976735     
 -0.259256896441912     
   9.02285441712350     
   8.89005463483170     
 -0.269693070963492     
  -9.95589439635319     
   1.42120739098386     
 -0.254735644062661     
   1.85646132518175     
  -9.86430253594780     
 -0.261426095236427     
  -9.86009937433936     
  -4.56891019115050     
  -3.32010007329452     
  -4.54468693268806     
  -9.76030660284155     
  -8.54483395833546     
   3.29331331816736     
  -4.19797889389932     
  -7.26878621490728     
  -5.10725484024749     
   9.33752844046514     
  -2.43406741392234     
  -10.0296829864431     
  -5.16119344889605     
 -0.302084745810793     
   6.82091146664546     
   7.02309751618607     
 -0.309485181191474     
  -9.44993558122319     
   5.15242647682579     
 -0.304920702003841     
   8.76288490436847     
   1.34705086383319     
  -6.52070701628696     
  0.974980423832016     
  -5.06633844925141     
   5.55027457253833     
  -9.56981539215076     
  -9.83944198257591     
   4.26560156819665     
   7.50260515347973     
   5.56978680706556     
  -10.0593172962530     
   7.48695811883848     
  -9.53723476589430     
 -0.296215924964381     
   5.97791418466462     
   8.05312842018622     
  -10.2088754823995     
  0.412971426635317     
  -9.12651300802459     
  -10.6568598752981     
 -0.374742056437877     
  0.683992001984109     
 -0.302827409992312     
  -10.0565096088932     
  -1.02121721383361     
 -0.297774995676964     
   3.47802032571157     
  -4.12873619898647     
  -6.17830793717864     
   5.06481868527095     
  -3.30791005585264     
   9.55197207287072     
  -3.68318086651377     
   7.12799651103843     
 -0.307633405340491     
  -10.5421171610688     
  -3.68745396069232     
 -0.258250686579027     
 -0.252108333696812     
   2.16863691813999     
 -0.252220160851203     
  -9.42544049343975     
   6.30641802309753     
 -0.258229129438674     
   9.94742463590539     
   6.88805628386072     
 -0.253760172815042     
 -0.110662463167188     
  -9.93079849480145     
 -0.246602785011318     
   7.08536723091279     
  -7.63088430712078     
 -0.243777364158989     
   6.69589262700516     
   9.58399932873578     
 -0.246152624265334     
  -7.17913998848642     
  -6.07354385853381     
 -0.234153287847204     
  -7.56861459239406     
   9.47820890004825     
 -0.256000753383108     
   9.46181708372978     
   9.27834636411595     
 -0.260539351145479     
   1.49520239292819     
  -8.34756380020932     
   5.24131204326063     
  -10.0073341599378     
  -8.73703840411696     
   6.63362291227843     
 -0.464902484658374     
  -9.99094234361929     
   4.84722940306337     
  -1.95112935588878     
  -3.98657433200785     
  -7.95808919630169     
 -0.983380659707137     
  -5.62710074996305     
   5.13082909968806     
  0.837046991274407     
  -5.68102241424204     
  -2.02423953453243     
   5.28763069331009     
   5.73787219046123     
 -0.266864845485440     
  -6.10861979637737     
   2.88523342502303     
 -0.253091759427952     
  -9.87433297082956     
 -0.247207326102529     
 -0.246845920174575     
   4.36025077703724     
   8.89120617620295     
 -0.252692308045224     
   4.25738407621009     
   6.40334501810090     
   3.35248866826451     
  -9.89259144570847     
  -8.40983351493606     
 -0.247869390227921     
  -8.02035891102842     
  -5.95620090634780     
 -0.241027872510448     
  -5.57274645684601     
  -7.24140970321315     
 -0.238611952644959     
  -4.53706617353852     
  -10.6404680589796     
 -0.240029985948905     
   6.24209903933355     
   9.42762487408650     
 -0.228721143670373     
  -8.75315773711484     
   9.14269695967328     
 -0.249385926266890     
   6.13287100463134     
  -9.09456945428733     
 -0.254551199799943     
   4.77797419620442     
   5.81588201957260     
   3.60246989070682     
  -9.51598761193222     
   8.79335451216359     
   8.64672473835242     
   8.99936923340505     
   9.00119653222914     
  -8.79930811884369     
   9.21215069553262     
   7.86431643872807     
   3.88559841629944     
  -9.55230179847280     
  -9.87619962939000     
   1.57909233751217     
   9.56124523008943     
  -9.94330144576230     
 -0.260402591274720     
   9.28342379299602     
   8.85298890660179     
   7.41257212009370     
  -8.14007755268521     
   5.10172249607575     
  -9.62228062968439     
  -5.95221176429977     
   5.43034196402435     
 -0.321901179400942     
   4.96335663778321     
   1.27428577792636     
 -0.306643460948302     
  -5.68351128758262     
   5.13799421137463     
   5.52746881528226     
   7.39942136306814     
   5.78975326291287     
   9.59184833784955     
   10.0129919011793     
  -3.67743465252687     
 -0.771053546665772     
   3.09580719284628     
 -9.307873246986270E-002
  -5.74336009255850     
   3.34838604292527     
  -3.83811144836742     
  -4.97736187210217     
  -1.09856422377063     
   2.99824941742503     
 -0.325111126625773     
   5.48922232436055     
  -9.62036020863948     
  -4.56776158489671     
  -1.64844953135180     
  -6.69315027050579     
 -0.240216510646155     
   9.01060419705057     
  -9.05687629928749     
 -0.247204036230352     
   4.53737358375290     
  -6.85193509930552     
 -0.315477545401372     
   4.91442971982046     
  0.723467277901051     
 -0.248671071801316     
  -2.65968032166479     
   8.72653586089913     
 -0.256714308309199     
  -6.46246049539789     
  -9.90546221583986     
   2.93121719835982     
   2.97011428568640     
  -5.50218810051864     
   5.18037073203248     
   3.80752258883123     
  -10.5912926100242     
   9.33399336420801     
  -4.08033812009773     
  -6.07590122059314     
  -3.41461828222167     
   2.22484615113230     
  -5.74881076426486     
 -0.893816105346942     
  -9.08103868771687     
  -9.88148261545736     
 -0.320006764487140     
   8.62676711144386     
  -7.38944838420194     
  -5.34635888549324     
   6.49424444316973     
   8.28523242533468     
 -0.312872346223710     
  -5.75582493765473     
  -4.28553631683980     
   2.69579641381909     
  -4.13886620027808     
   4.48767175104987     
 -0.326780666635752     
 -0.571700050201073     
   2.41339278796831     
   4.40579181273296     
 -0.520954842867039     
  -7.16397866452704     
   2.72943049802632     
  -7.51144370509032     
  -5.42031567684805     
 -0.227107561236388     
  -5.19344643531244     
  -1.49115900216290     
 -0.233522299447345     
  -9.92537507834541     
 -0.302215569882279     
  -5.79115358415846     
   5.20542887889861     
   4.27881886074216     
 -0.320209139624049     
   2.44849997052536     
  -9.94176689466388     
 -0.332644091003938     
  -7.23030441242244     
   4.11291098703225     
 -0.331438315898578     
  -5.72363993168769     
   5.23663474353464     
 -0.298182302182470     
   3.77395397876058     
  -3.69787150846647     
   1.39590433423173     
  -4.01764252032134     
   9.31429073686354     
   2.81394545786517     
   1.71532920275052     
  -5.59882996960178     
   4.74519452818250     
  -6.40019078067116     
   5.03537279554720     
 -0.340437898864470     
   4.67247606744208     
   2.62584947316727     
 -0.230751528193694     
  0.641088119752345     
 -8.487457437848983E-002
 -0.223172265331000     
  -9.39315337938731     
   1.15105401300906     
   1.59060924798132     
  0.762794414968026     
   3.19556797686567     
   9.22698907006638     
   5.91694341918990     
  0.331031069275935     
   4.62830209714284     
  -3.24881680330521     
   5.05504612415447     
 -0.217290244571027     
  0.939979780037196     
   1.98455757348138     
 -0.222992181196945     
  -9.95815871098235     
  0.961777123681907     
 -0.335409841677356     
  -10.4929417121134     
  -7.21069314766476     
 -0.331564324626267     
   2.82272279551919     
  -7.93583043502777     
 -0.324802555064816     
  -8.95662525885009     
  -4.03845168704444     
   8.97047053572424     
   7.25408001993211     
  -3.02584100258138     
 -0.343662056702993     
   5.01908001369905     
  -7.84923674156440     
  -8.80669160391701     
  -7.52996864556143     
   2.78888551393230     
 -0.353115850344151     
  -7.55994687434395     
  -10.2614073098209     
  -9.20421567655590     
  -8.79558095482344     
  -7.64154941649385     
   4.97781961050004     
   2.83619555473734     
  -9.82409085054229     
 -0.325139262502417     
  -9.59347878658008     
   3.47568995446910     
  -7.39610425088597     
  -10.5257253447503     
  -8.17949901163130     
 -0.221986501506804     
 -0.210161677374723     
  -9.84667391323823     
  -8.82891290210302     
  -8.34330594118930     
   9.96381645222387     
 -0.210463006052434     
  -8.62159244355833     
  -8.49696366255086     
 -0.195716029133219     
  -8.86431057167292     
  -9.39679643913302     
  -8.99062693613089     
  -6.77108156141606     
  -9.48647035079714     
 -0.215467876242305     
  -4.91713851198922     
 -0.204192560759269     
  -9.28311314729787     
  -8.84002355119605     
  -9.10357355974367     
 -0.203406525233525     
  -8.78447599403947     
  -8.89988816136493     
 -0.189487781517954     
  -9.00054153881718     
  -8.16838836249444     
  -5.01274570493689     
  -8.77324124336950     
  -9.40517635749410     
 -0.308284243592968     
  -6.19885526747105     
  -1.60406162763864     
 -0.298990028574093     
 -0.404196871029181     
  -2.66802478778192     
  -1.10364424710200     
  -9.25317426665839     
  -1.26207975988856     
 -0.323075460623583     
  -4.43865440143672     
  -9.62298826656438     
 -0.313588216765631     
  -5.76023539741078     
  -8.78875036177281     
 -0.313779232044344     
  -8.74790880801630     
  -5.33138424444308     
  -5.40707407291928     
   4.87068060351333     
  -9.73975603650492     
  0.627137187851251     
   5.19449034031542     
  -8.48753998322779     
  -10.2921419649600     
  -8.81780225301004     
  -5.35255565498527     
   10.0293837174977     
  -9.63735234329291     
  -9.24781919104698     
  -4.98481005377121     
  -8.89744005342471     
  -1.23643744369707     
 -0.283978936777304     
   5.03201383855929     
  -3.50216999566765     
  -9.49432138642143     
   8.58099593181661     
  -9.38260050666892     
  -9.66716737472902     
  -4.35829709950355     
  -3.65494058365386     
 -0.279978369379673     
  -8.76187670281345     
   9.11945066281666     
  -7.89340795068296     
  0.837772677135705     
   9.32140257304512     
 -0.634481959179202     
   5.27336632470242     
  -8.75782341038003     
 -0.195209705971668     
  -7.98437056603984     
  -9.52833405700114     
 -0.179826229604619     
  -9.44155982908071     
   1.07717833603520     
 -0.202563420582489     
  -7.55803544188214     
  -9.11694330058885     
 -0.187978105870071     
  -3.60176688627265     
  -5.30402828000287     
 -0.173353804807594     
  -3.86096617194799     
  -5.67403477773563     
 -0.194193189388337     
  -9.12872345659980     
  0.378326284602585     
  -9.71365679989584     
  -7.76255584253499     
  -10.3638561602847     
  -8.64286769983550     
  -8.49865063232071     
  -9.45277816255062     
 -0.327912299692624     
  -7.62113514333581     
  -4.60734500042783     
  -10.1717799818411     
  -8.63150704537228     
  -4.58224515962651     
  -8.50518159994089     
  -7.45420143010331     
  -8.87422517247426     
  -5.28285686945788     
  -8.50976128141367     
  -8.72742449831119     
  -4.93316457033540     
  -3.95338678541724     
  -5.59020848602493     
 -0.164026616485726     
  -5.37372706579672     
 -0.156117860622845     
 -0.153159833191693     
  -8.46537842830959     
  -8.76773800322926     
 -0.163094458843695     
  -8.38878891767201     
  -8.43146831087251     
 -0.151821799953583     
  -8.17799480105759     
  -9.24325966504680     
 -0.161004370414636     
  -8.21574091103363     
 -7.704591001868377E-003
 -0.142516909506063     
  0.252486568645371     
  -8.84129004021817     
 -0.138072313274041     
   2.57565503486578     
  -6.09100157462324     
 -0.138141233214154     
  -5.63823792043080     
   1.61225641213337     
 -0.177380637451086     
  -8.47642933413454     
  -8.52006842622331     
 -0.176474757172441     
  -4.40340104599889     
   10.0457755338162     
  -9.16646956657931     
  -8.26245684794197     
  -8.50546988131491     
  -2.91880547733949     
  -8.64142164322131     
   4.09139882283849     
   9.03085587130957     
   2.85111312173296     
   4.36902199644920     
  -8.45419773269361     
   9.33159254264355     
  -4.32735928746815     
 -0.187686757440456     
  -9.01045613495002     
  -5.01763830816866     
 -0.131491217908591     
   1.98617534862893     
  -4.31689023896584     
 -0.119490493099785     
   5.05753720438167     
   1.12877899323311     
   3.11465711582557     
  -9.52421646077667     
  -6.07913498571597     
 -0.121794315276281     
  -7.79817506546377     
  -8.41194013829346     
 -0.110642187546570     
  -6.88041896771390     
   1.82501620889240     
 -0.113901808998200     
  -8.44288724714795     
  -8.15727771340220     
   1.45109727238639     
  -8.27238715095037     
  -5.03880971871004     
 -0.100580139997706     
 -0.732791723294144     
  -8.14621044973140     
 -0.100490458889318     
   4.05544265799402     
  -8.48232231624369     
 -9.801996347664134E-002
  -8.59556064617340     
   4.38690997592085     
  -3.86208260119561     
 -0.918699516606409     
   3.48866203231001     
 -9.380184225935449E-002
  -7.90904017260499     
  -8.13508380907681     
 -8.120989744468107E-002
   4.70706571410940     
   4.34850851345215     
 -8.982315854368360E-002
  -5.55697530080747     
   2.95240358242098     
  -3.36110522383427     
  -2.71254998828712     
  -4.67724867139111     
  -3.58203012307688     
   3.38804012341051     
   3.32640849971220     
   1.28993813275337     
  -8.10545913733822     
  -8.51510528148465     
 -7.349395664499409E-002
  -3.33407219556634     
  -4.53768983772817     
 -0.171446826792518     
 -0.162811871958989     
  -9.04114894447326     
 -0.160780249087701     
  -1.61394106398170     
  -10.5093335284319     
 -0.171497357262114     
  -2.59114429367409     
  -2.34649621209057     
 -0.160468266776327     
  -2.62771669664058     
   1.05448953838891     
 -0.170772597993526     
  -1.64159299708241     
  -4.70076861902565     
 -0.150582428489219     
  -3.27549776612719     
  -1.33213194330484     
 -0.144962026000782     
  -2.96107284143045     
 -0.973366856667002     
 -0.147440367501458     
  -1.95107008844586     
  -1.30324329312712     
 -0.185182032428481     
  -3.45448353735699     
  -2.21660401250446     
 -0.185474237251353     
  -4.06507689973955     
  -2.31824812398476     
   1.33002084509073     
  -2.34723189570779     
  -1.97992895880150     
  -1.67046719192815     
   1.23833747574083     
  -2.68519282532827     
  -9.38103037381882     
  -2.03761304028859     
  -2.28940737059851     
 -0.954257359473076     
  -3.30553639310497     
  -3.27756275712132     
 -0.198209046952541     
  -4.27742196100764     
  -2.65672322129584     
 -0.139376535235595     
  -2.42657331139774     
  -1.44650628812553     
 -0.126548902595017     
   4.84016473959102     
  -8.13612779330189     
  -2.96602538185905     
  -1.75735881019843     
  -2.00879353011791     
 -0.129909190271815     
  -8.37305543425538     
  -1.77433605888046     
 -0.118476372792761     
  -8.06820717403024     
  -8.39870351150178     
 -0.122826911778433     
  -7.79348939960724     
  -7.91141339584331     
  -9.17354706149802     
  -4.71950647027700     
  -7.96752325484968     
 -0.108891079276316     
  -8.11247885525348     
  -8.01974362917712     
 -0.107692487424779     
  -8.12389779145405     
 -0.655473887960345     
 -0.107826482259311     
  -3.02340448238109     
   4.75189973073124     
  -5.37025775340785     
  -6.51002545774240     
  -7.81601327016694     
 -0.101667322602727     
   4.72669301932364     
 -0.993802933032167     
 -8.853026788037632E-002
  -5.54296387915136     
  -8.14024869107404     
 -9.845048528853619E-002
  -8.00518409312156     
  -2.40166499272891     
  -5.41606988407949     
  -8.15120071550321     
   2.68715382106065     
  -9.06865293831062     
  -7.43618088813674     
  -8.82439594141236     
  -7.65645374169462     
 -0.729505505263428     
  -1.38221918116775     
 -8.293497518882509E-002
  -7.85974895251148     
   2.32521518564728     
  0.702642588594782     
  0.705317953446897     
  0.687335567586028     
  0.680397835149370     
   3.16425418494629     
  -1.10460978712760     
  0.728695215219618     
  -7.19968228696372     
  -7.49679923240632     
  0.706523047739409     
  0.690444352545408     
  0.708218398501197     
  0.684804281979643     
   4.00426219807957     
  -6.85836614546472     
  0.731126332226558     
  -7.18865250112112     
   3.91822793545286     
  -8.10225091885737     
  -1.65221121914023     
   4.99400999406959     
  -8.71761806743807     
  -5.68058074180868     
  -4.09339931000179     
   4.41247270106737     
  0.671709526462801     
   3.77408981450976     
  -8.25348702100835     
  -7.76706375259758     
  0.668391426697557     
  0.402536731156366     
  -1.29241932635065     
  -1.23965234418578     
  -6.48970386744626     
  -4.26157914776222     
  -8.44836243228179     
  -2.99557433519089     
  -6.88920352009192     
 -6.173094705380757E-002
  -7.83812609250467     
 -6.914610729083903E-002
   1.50269793263894     
   4.21195048729259     
  -8.53656284786304     
  0.208897360589455     
  -7.65069963698794     
  -2.19777554318195     
  -5.30773206485653     
 -0.306416458405205     
  -10.1140907560286     
  -9.93572313069617     
 -0.362041472737445     
  -9.50854319174626     
  -7.51897447152334     
  -3.64376624960153     
  -9.88819360630118     
  -9.80834572050929     
 -0.340492195580062     
  -9.24299392161066     
  -6.54166208294952     
  -1.66187465856824     
  -2.09230418641018     
   4.09144648700736     
   4.58492921831396     
 -8.426621816151392E-003
 -0.712978808776705     
 -0.130440143989262     
   2.03777600535030     
   3.07918588961852     
 -0.121747469338976     
  -7.80195457930130     
  -3.67255737578107     
 -5.098180901103623E-002
  -9.13677249496613     
 -4.204533364881820E-002
 -5.990576984424809E-002
 -4.953432669445228E-002
   9.22475820353285     
 -0.304537292475925     
   4.03303155682906     
  -9.59898074801625     
 -3.193198836357369E-002
   6.02143926306592     
 -2.223845826723767E-002
 -4.103208541745682E-002
 -2.978071858878681E-002
   3.79980887674324     
  -5.47444370632158     
  -8.86214205138958     
   6.24414830837080     
  -3.61457050162751     
  -9.42197592454415     
  -6.86941485269240     
 -1.185823685280191E-002
  -5.95669330279741     
 -2.318250626104814E-003
 -2.100345122946728E-002
 -9.895627142923634E-003
  -7.72447420959723     
  0.665226172027048     
  0.652010155867199     
  -4.38153958566680     
  0.660341678365675     
  -1.10395960215532     
  0.648477005480222     
  0.700807677191687     
   4.11153125376965     
  -2.14053390468862     
  0.694884902285635     
  -7.48567793976518     
  -7.78722985524303     
  8.300530536233263E-003
  -7.46308090382158     
  1.769467258708092E-002
 -8.717543544592868E-004
  1.009930228353545E-002
  -6.43725945903003     
  2.853388007549350E-002
  -4.80970080168545     
  3.780049477554646E-002
  1.935126868571935E-002
  3.020331524191241E-002
   4.24487398157356     
  4.882724543130459E-002
   1.87661686768270     
  5.795737162027477E-002
  3.964979909062081E-002
  5.037290861567954E-002
  -7.50786382275874     
  -5.05998112948886     
  -8.88413977492590     
  -7.68393016725092     
  -1.74532364773507     
   9.69540046352010     
   4.95333708457377     
 -0.170997459051074     
  -1.73940292125018     
  -2.76341756495836     
 -0.157661752234551     
  -5.39489847560856     
 -0.374695216106688     
  6.916975725813813E-002
  -7.75315813993066     
  7.818706472711445E-002
  6.001174407508005E-002
  7.062892219804087E-002
  -7.28165694999303     
  -2.73806161942888     
  -7.46503594142243     
   9.37985800213742     
  -6.44957844573108     
   3.91226401793230     
   3.43558955861404     
 -8.905356488204608E-002
  -7.80483792216909     
   2.19985924349616     
 -8.388374914534300E-002
  -4.21512396470572     
  -6.84729855000327     
  8.955698042448020E-002
  -5.10232392641299     
  9.845665628218574E-002
  8.043166311851223E-002
  9.093756640256580E-002
  -5.08115253909348     
  0.109985700919501     
  -6.52809875677905     
  0.118779614906843     
  0.100905564734087     
  0.111311494532811     
  -6.80958749671712     
  0.130447840347124     
  -6.80642557592973     
  0.139141331470776     
  0.121424690982559     
  0.131735947190655     
  -6.36856058133779     
   3.42201238020883     
  -4.05995120951283     
  -8.29014778046330     
  0.679194063849539     
   3.71755459958050     
  -7.82701544361888     
  -9.93190197321634     
  -5.12349521163102     
  -3.74849836621405     
  0.661010248919534     
   3.69955775892119     
  -3.43704575082151     
  0.680955864841034     
  -3.77517213946166     
  -3.41173265814663     
  0.646061038916451     
  -7.49384755062462     
  -4.11404384376445     
   4.41063758938387     
  -7.52436035800787     
  -1.46237522511196     
  0.673324545073106     
   3.42580090281933     
   3.78328462164849     
  -4.76740646581279     
  -4.29568309198686     
  -7.10768314785899     
  0.654226300727584     
  -7.31536010197093     
   4.14170136545017     
  0.673865860298818     
  -7.03700801427132     
  -7.29159938514673     
  0.640788195792814     
  -7.63614960126520     
   3.84516167473065     
  -6.88106835804089     
   4.91352373836384     
  0.628090824160969     
   3.03383503706779     
  0.631839209123796     
   3.38408080670958     
  0.141986543138901     
  0.152198151454145     
  -2.47732777284005     
  0.150941547901314     
  -4.08836811443102     
  0.159530524012890     
  0.162579723164895     
  0.172708243285670     
   3.43900786952061     
  0.171456135535035     
  -6.79612331082185     
  0.179956806217133     
  0.191996912048172     
  -4.51623806309972     
  0.200416445440177     
  0.183208682054571     
  0.193260195846654     
  -6.21164809544430     