 TITLE="euler solver on unstructured grid" 
 VARIABLES= "X" "Y"  "P" "Rou" "U"  "V"  "nuT"
 ZONE NODES=       11173  ELEMENTS=       18178  ZONETYPE=FEQUADRILATERAL
 DATAPACKING=BLOCK
 VARLOCATION=([3-7]=CELLCENTERED)
 -0.306890515998295     
 -0.301899533517536     
 -0.302454996669777     
 -0.306360490856322     
  -7.44779051332581     
  -9.09730443060648     
 -0.300557749374835     
   9.47681211214919     
   9.43243877313934     
 -0.311854373151865     
   8.73370839817204     
  -9.91026141557547     
 -0.309335291853125     
   8.81296912320530     
   8.42912549757900     
   5.13548023894366     
  -9.64091449799621     
  -10.4755038723315     
 -0.317038715437568     
  -9.68866055274735     
   8.94729099444078     
 -0.313327893372669     
   9.44127470318036     
  -9.57765991597906     
 -0.317966603372003     
  -8.90683928641570     
   8.89455832230272     
 -0.311338562206352     
   9.01323661624947     
  -9.35162924466080     
 -0.307204965637817     
   5.84621248255362     
  -6.44431353889646     
   8.70710145777331     
  -6.36521962401512     
  -7.09096327229614     
 -0.302254573617303     
  -5.88887837974535     
   8.84838181804003     
 -0.311647879950641     
   5.53125990974497     
  -7.83767131836916     
   6.57222483580650     
   5.27525983049259     
   6.33930307999440     
 -0.307266290278268     
   5.53699853328251     
  -7.32733455876640     
 -0.314253124388824     
   5.92836499243091     
  -6.83196953570296     
   6.44179098121858     
   6.48191217372131     
   8.88583171608340     
 -0.306926226962031     
   9.33667375684997     
  -6.46517255855054     
 -0.311877788542868     
   7.74367772574205     
  -9.48561196369670     
 -0.301271224982880     
  -5.92518903776447     
  -6.10483376287802     
  -9.08938044899236     
   7.25577892379036     
  -8.18319945235206     
   5.88846777216436     
   8.58574662376912     
  -5.67952898241780     
  -7.31179965512207     
  -7.30216322652421     
  -9.41594858691038     
 -0.286629001718199     
 -0.285751486116341     
 -0.281237064475071     
 -0.291933893635876     
  -7.37967796894334     
  -6.68574234918346     
 -0.290969297508538     
  -7.86005208143185     
  -6.82796435024614     
 -0.287357577093123     
  -8.80667298712844     
  -6.53408065461306     
 -0.292856505049895     
  -8.33376605607667     
  -8.97342277880366     
 -0.296618678062188     
   9.03190737688618     
  -9.59676372587869     
   8.19978875210165     
   6.18284610163780     
   6.04910327957296     
 -0.300693429679089     
   8.13082924145581     
   5.67353926315885     
 -0.287974813518627     
  -9.46710641706762     
  -8.41191789652961     
 -0.283069223226189     
  -7.93158051543608     
   7.97964373791088     
 -0.281132913409310     
  -8.48372254248431     
   7.85028949179676     
 -0.276369704739375     
   9.55468271612447     
   8.32990201129510     
   8.65025758081707     
   7.40742298775490     
   6.31222300756256     
   4.78990216104476     
  -10.1056430682973     
  -7.45149183231367     
  -6.23418936167334     
  -8.44596043120899     
  -7.34381144699516     
 -0.289908560131981     
  -8.00336220193583     
   7.08369380791491     
 -0.284012567535921     
 -0.278721542527113     
 -0.283472297842003     
 -0.289509557933045     
  -8.01792202132816     
  -9.10244040008186     
 -0.288193113372803     
  -7.65560644709510     
   7.72092640642209     
 -0.284373642857376     
  -7.52000946707219     
   8.05287875794997     
 -0.289763319695676     
   8.32351942105285     
   7.14870568529116     
 -0.285504531102736     
  -7.81169167804787     
   5.45064983560980     
 -0.295454664254269     
   7.47313261968547     
   7.27806857340075     
  -9.20975504378552     
   5.20116226226215     
  -8.50872195814373     
 -0.296799686932977     
   7.58049733484075     
   4.74756323692439     
 -0.280279920074143     
  -8.58352587053584     
   7.89846498123041     
   5.92036998209648     
  -8.28681213535082     
   9.07970756901207     
 -0.273637234150190     
   7.53972344509231     
   8.48834205109523     
 -0.278049623180727     
   7.73442644558162     
   7.53664595713535     
   6.70582344275458     
   5.47454066907742     
   6.57651042689850     
  -9.02905955115075     
  -6.97107494117746     
  -6.89944961596247     
 -0.287889964509646     
  -9.89705845258370     
  -6.01804229463476     
 -0.294640960102408     
   7.04781969116538     
 -0.291923444813174     
  -8.07746814303447     
  -6.61502865122851     
  -6.21992294895453     
 -0.295473812081015     
  -5.70837272937976     
  -8.69094710937131     
 -0.296376550817589     
 -0.293653593969642     
   7.05090046036769     
  -8.55551006431924     
  -8.00354264081555     
   8.14904308447182     
 -0.296886461713163     
   5.56294438718062     
   8.19242254729254     
 -0.305982681861542     
 -0.298397637959727     
  -8.07604508633922     
   8.99420908700165     
   8.08857851771906     
   4.76984762193888     
 -0.303483398199870     
  -6.28538539333864     
   6.01782291510158     
  -10.4402983491215     
  -6.22616147211339     
   5.37715158747831     
   7.01912974800033     
   6.58721804564131     
  -7.51971905929224     
  -8.82050866856892     
   7.11506847226916     
 -0.299467798637531     
 -0.303885662693730     
  -5.85475793943809     
  -6.90180242548268     
 -0.306403333944321     
   5.98416260457798     
  -9.26018316134913     
  -8.88429144696920     
  -9.83333103266303     
   6.79728408700926     
  -8.86411976126974     
  -5.29942560585065     
  -9.61876332454799     
 -0.300201554643654     
  -9.63403330302470     
  -7.49900217627120     
 -0.306960616574946     
  -9.75700264836179     
  -1.58736171236917     
   6.27648003849813     
   6.34014327138096     
   4.83853215843199     
   6.62331975014141     
   4.31567037392986     
  -1.01417634657503     
   5.38955720791255     
  -1.41250097709865     
  -6.95922527870777     
  -8.38688840955387     
  -7.01327462850293     
   9.47648022639040     
 -0.272868306762273     
 -0.268156717656772     
   6.13359411475786     
   7.45768150333250     
   9.40782000388094     
   5.68022455665109     
 -0.268382596321205     
  -10.5576500931549     
   6.96455746787364     
 -0.274446189943702     
  -7.52351635706849     
  -9.91446943257729     
 -0.268552010667587     
  -5.38300649458655     
  -8.10342345634762     
 -0.263959211334911     
  -7.90411090671737     
   5.33387844592042     
 -0.260145308424615     
   8.32179712285183     
  -10.4285631747181     
 -0.255505372545756     
   8.45089436073779     
   6.93887248033737     
 -0.274912286961013     
   5.03909430506284     
   7.86624638969988     
 -0.262160957048519     
  -8.75939774184023     
   9.10792265384202     
  -10.0574382886933     
   7.19445350136254     
   5.99349378311485     
   8.53967166108035     
   4.79009980727464     
   7.03147778891481     
  -9.59778442401096     
  -10.0104975910799     
  -9.22895216012685     
  -7.18996680988200     
  -9.49183581067664     
  -6.29064498150776     
 -0.275964590520385     
   5.47228975554188     
 -0.271092364965722     
  -6.27362272782202     
   1.26259892640520     
   1.04945785783722     
 -0.271648092169560     
  0.699166576881238     
   9.61436852497395     
 -0.277906161718085     
  0.691753194998301     
  0.947348058266302     
 -0.272163900187544     
  -3.34077647343085     
   4.95648936467872     
 -0.267377514710539     
   9.30176892895740     
  -5.62839958084051     
 -0.264053118385163     
   8.92125669897162     
   9.04725774341353     
 -0.274583201457371     
  -9.99158813773710     
   1.02610443497755     
 -0.258825724004346     
   1.47781946244483     
  -10.0004289065580     
 -0.265291307495214     
  -10.0312041298207     
  -5.26914622804272     
  -3.65473664965672     
  -3.85755618107154     
  -9.83027432093665     
  -8.12710492116207     
   3.98440439554899     
  -3.53170625226529     
  -6.90581239562068     
  -5.79218225799839     
   9.08790826360431     
  -2.03440966014558     
  -9.95994401700970     
  -5.41219906181418     
 -0.300178772509689     
   6.38371950641683     
   6.30440838032641     
 -0.307668499966576     
  -9.63908136986524     
   4.69818025340420     
 -0.302367235825311     
   9.13159683901101     
   2.04699193447233     
  -7.05715060961153     
  0.305605710258037     
  -5.27597702876759     
   5.01553071403694     
  -9.44358076984831     
  -10.0468851347677     
   4.96024737090865     
   8.18429441111598     
   6.00128490160168     
  -9.92064934886329     
   8.12818096937734     
  -9.06588454763202     
 -0.299125278090906     
   6.59628739502077     
   7.59195448697451     
  -9.55716305348685     
   1.06555929711076     
  -8.40873177459631     
  -9.98702724227325     
  0.322450475416924     
   1.35684241106174     
 -0.306102068904053     
  -10.4168280003148     
  -1.44343199634160     
 -0.295063088679085     
   3.73658448550010     
  -3.94032878898327     
  -5.59731131454234     
   5.07395979560407     
  -4.01470329667157     
   9.84173752565070     
  -4.37001764970334     
   7.54132681523856     
  8.451643332439389E-002
  -10.0691734630967     
  -4.41076611837763     
 -0.253934898056175     
 -0.248011233830545     
   2.84966051205310     
 -0.247716992856562     
  -9.78993950283430     
   7.03086061071889     
 -0.253589032542088     
   9.55862644721381     
   7.57417121248217     
 -0.248814386626332     
 -0.806884118169630     
  -9.88483052610423     
 -0.241924981003326     
   7.81014603830739     
  -8.35589857740027     
 -0.239449763767537     
   7.42050332451314     
   9.22509604132980     
 -0.241004581818985     
  -6.46051820562505     
  -5.65990992068756     
 -0.229592630316608     
  -6.85016091941930     
   9.89454581002858     
 -0.250434578005842     
   9.90628098443193     
   9.45087174182092     
 -0.255512931719117     
   1.12971876351017     
  -7.62944634700780     
   5.62811452187015     
  -10.4520335235248     
  -8.01908906080206     
   5.91476566653216     
  -1.13728351197108     
  -10.4637686979282     
   5.27323290182176     
  -1.26558650507725     
  -3.39523805170040     
  -7.23980363321355     
  -1.38061069660192     
  -5.99063669063454     
   5.22521269410773     
   1.53365619818363     
  -5.30027557204201     
  -2.44768770129399     
   4.95350186920651     
   6.38678886129677     
 -0.261434293526096     
  -6.72162476715012     
   3.11729376723735     
 -0.257628259955539     
  -10.1402067774344     
 -0.251519946822053     
 -0.251564501296168     
   4.13653626399749     
   9.13950273130945     
 -0.257552935225594     
   4.06397151114743     
   6.93359655907417     
   3.13932911230926     
  -10.5341797443482     
  -9.13518400498879     
 -0.253031696025667     
  -8.74554129119454     
  -5.94315098221537     
 -0.245916153745261     
  -5.68524976015092     
  -7.96625586360602     
 -0.243147767930375     
  -4.32426602423692     
  -9.99876241667659     
 -0.245387880597835     
   6.01137302446261     
   9.31867487873227     
 -0.233481592836728     
  -8.52893468548814     
   8.97030071747703     
 -0.255170242946726     
   5.92612849607461     
  -8.85791103498746     
 -0.259799949034844     
   4.84696155557371     
   5.59845576786722     
   3.36003831166227     
  -8.79837448839056     
   9.11370641826828     
   8.73295132923623     
   9.29226441183503     
   9.08755165547320     
  -9.52482671878304     
   9.47803814812183     
   8.58943146589590     
   3.66897498499403     
  -9.79179455132216     
  -10.5459149187516     
   1.04779129142387     
   9.38322043876658     
  -9.77625677071565     
 -0.266060728981946     
   9.60198179897308     
   8.91639405792716     
   6.69405109412066     
  -8.23133924995290     
   4.56021910409107     
  -9.46873830710212     
  -6.47290079221693     
   5.55479771176711     
 -0.322915868316005     
   5.09232376483203     
  0.577974152716111     
 -0.303296520920961     
  -6.40768500842902     
   5.86193246933614     
   6.25157518313039     
   6.83518842034559     
   5.51590267958583     
   9.27567488893721     
   9.51168574960043     
  -3.47441726986583     
  -1.42583834625320     
   3.34889727049478     
  0.443846638036152     
  -5.64602690776504     
   3.76348893744332     
  -3.53902577783969     
  -5.47043041284070     
 -0.680039065253594     
   2.33715287879858     
 -0.324516575468698     
   5.13915765538534     
  -8.92803168759353     
  -4.26580310086155     
  -2.06784800300317     
  -6.53985017862079     
 -0.246316709698160     
   9.21327423519562     
  -8.84773504507631     
 -0.241314223714591     
   5.07953155366694     
  -7.57661314981177     
 -0.313508342357395     
   4.95353406133814     
  3.349727091735649E-002
 -0.255680903937499     
  -3.33256929714691     
   8.90604235671679     
 -0.249922616914663     
  -7.18697043601752     
  -9.18801720218481     
   2.23888392685197     
   3.38646193861107     
  -5.73266454904781     
   5.24154617555768     
   3.11239559861265     
  -10.0339679398866     
   9.34867595174487     
  -3.86384538121526     
  -6.19786524119748     
  -3.12217295314387     
   1.58262164222991     
  -5.20965049501177     
 -0.505537721561140     
  -8.68090661554606     
  -9.77858256234913     
 -0.321972760134207     
   8.26401106066614     
  -8.08174675433204     
  -5.79123464238484     
   7.09969630247349     
   7.93086905911369     
 -0.308889883802712     
  -5.83676324422136     
  -4.58793928076565     
   2.49886974612707     
  -4.41823284703316     
   5.07667282493468     
 -0.325063334418815     
 -0.986304407840405     
   3.01694785475905     
   5.04013157707383     
  7.478196417117156E-002
  -7.53922206195257     
   2.98410118552491     
  -6.83452770296792     
  -5.09298342806400     
 -0.232710550724898     
  -4.84780852455518     
  -1.06317675366676     
 -0.228118132764934     
  -10.5107093955415     
  0.260669601441100     
  -5.30589299845375     
   4.82273289715918     
   3.97822489255308     
 -0.317420468547754     
   2.23565095338007     
  -10.4989742211382     
 -0.333960749946097     
  -6.90534842397071     
   3.42001853142322     
  0.328005614729846     
  -5.27682757419996     
   5.21447214532029     
 -0.293292669145722     
   3.10163519870677     
  -3.14960669126900     
   2.06300481118112     
  -3.45368613599137     
   10.0118975540620     
   2.59276888569962     
   2.38853943841405     
  -5.92611353214139     
   4.25276449237815     
  -5.68123277803655     
   4.35095860266071     
 -0.339803739535932     
   4.01122827523469     
   3.20656021124282     
 -0.224346800607185     
   1.19165831785817     
  0.500656018572500     
 -0.229772921167252     
  -10.0427771521041     
   1.67306424416719     
   1.03196816804925     
   1.28438308986855     
   2.80816637678539     
   8.89072245748688     
   6.64121789692464     
  0.862649453554364     
   3.93066425810496     
  -3.64412176550527     
   4.54262707770132     
 -0.222277288694896     
   1.43429535425571     
   1.44563678856570     
 -0.218195177265513     
  -10.4872390467348     
   1.51156851646387     
 -0.337581037611999     
  -10.1043789863067     
  -7.55646774819356     
 -0.331900448044533     
   2.39490774224879     
  -7.58187179497155     
 -0.319497281563416     
  -8.59386108255639     
  -3.50132170731606     
   8.25262194929768     
   6.84303237251494     
  -2.33132392736266     
 -0.340944033887796     
   4.37397024474887     
  -8.16491617395596     
  -9.07724279925574     
  -7.86069684785176     
   3.39358031677757     
 -0.354665433430711     
  -7.21796336113095     
  -10.2701383224588     
  -8.88543074607542     
  -9.03912486945656     
  -7.27802982671772     
   4.35864393265710     
   2.38038446325687     
  -9.51278337885202     
 -0.328146697432715     
  -9.59061717797317     
   3.06529298984061     
  -7.28130183421609     
  -10.0809086375000     
  -8.50714297904638     
 -0.216488202415874     
 -0.205129848421672     
  -9.85470277977979     
  -9.15347865885297     
  -8.45831872516356     
   9.54689127281047     
 -0.204498159315236     
  -8.67901720886967     
  -8.58240973086704     
 -0.190455585444655     
  -8.94172579449741     
  -9.17463937993830     
  -9.04224503284851     
  -6.40588407864209     
  -9.23636480879538     
 -0.221154994848312     
  -5.43514653550664     
 -0.209403238456999     
  -9.35544117264888     
  -9.19159658865160     
  -9.30501417339822     
 -0.209550011500185     
  -9.00096551861528     
  -8.56608291097943     
 -0.194914491680080     
  -8.98057492550551     
  -8.46902504920376     
  -5.55532062128942     
  -8.96267378540843     
  -9.38170337845434     
 -0.312402639192964     
  -6.34522858010714     
 -0.902056490185196     
 -0.303939888032454     
  -1.04331959378179     
  -1.97378630946883     
  -1.77094593310866     
  -9.18161340025830     
 -0.579026176860034     
 -0.327602107368038     
  -4.69942760347611     
  -9.54365216970117     
 -0.317215132978395     
  -5.91441043393548     
  -8.53649118525764     
 -0.316527105239441     
  -8.77953644722077     
  -4.75889053094368     
  -5.96877153493612     
   4.85373657906300     
  -9.50519182355937     
   1.25082323180531     
   5.83971637593335     
  -8.77313392425190     
  -10.2481348707804     
  -9.11536072905439     
  -4.80701178309916     
   9.49995057519709     
  -9.93083719236459     
  -9.10116943532775     
  -4.40018679291915     
  -8.75534673346233     
 -0.669622375963315     
 -0.278062917535828     
   4.68055501566042     
  -3.17005613604520     
  -9.58668269342434     
   7.86297923550343     
  -9.21201674444335     
  -9.48658806353674     
  -3.80556158069576     
  -3.38970190298458     
 -0.285817771577596     
  -8.92424966983587     
   9.16047153672549     
  -7.89086369801534     
   1.48467767393096     
   9.38884792630239     
  3.787372347842360E-002
   5.46970263663803     
  -8.71786633945266     
 -0.189087992573847     
  -8.02944492069534     
  -9.54667382667010     
 -0.174349380817996     
  -9.48724993081650     
   1.70004048306231     
 -0.195467737520501     
  -7.91772399449221     
  -9.14276427119959     
 -0.194265215570902     
  -3.98463342284982     
  -4.70413681098355     
 -0.178983097566032     
  -3.18942145846921     
  -5.08119146508804     
 -0.201460125487233     
  -8.86395660216627     
 -0.326492056988245     
  -9.50428968497507     
  -7.54644731076796     
  -10.1967934835308     
  -8.47852671489933     
  -8.81125185405042     
  -9.72090459519815     
 -0.324096433563778     
  -7.30653770091741     
  -3.98354102016001     
  -9.87564448640154     
  -8.61734710083315     
  -3.92892723847086     
  -8.51681960149240     
  -7.16304161383731     
  -8.88005568557185     
  -4.65601555882557     
  -8.84936978384899     
  -8.83079100614214     
  -4.29429693818603     
  -3.33472350628855     
  -4.92477375193042     
 -0.170465248347843     
  -4.85513303555926     
 -0.161929873627179     
 -0.159765585857937     
  -8.69691686380371     
  -8.65619622226152     
 -0.170376005887914     
  -8.35463851553446     
  -8.58189670898842     
 -0.159307505459693     
  -7.89517602493273     
  -9.24328350955067     
 -0.169456705495990     
  -7.90591309688538     
  0.633290394190589     
 -0.149500044302813     
  0.877804138881306     
  -8.97008287532375     
 -0.144044483108011     
   3.20319846483121     
  -6.45630930117750     
 -0.146181136087845     
  -5.07453105718574     
   2.26029830710397     
 -0.184152156171710     
  -8.73501599445307     
  -8.22526093197989     
 -0.184274050545318     
  -3.90454568270321     
   9.48821540079374     
  -8.87469367412244     
  -8.25410505514879     
  -8.87418816585893     
  -3.61141466192159     
  -8.55567698846340     
   4.55468852736034     
   9.02091926832047     
   3.53455375054381     
   3.75221271554879     
  -8.65868535087768     
   9.13172789787770     
  -3.74712563580975     
 -0.196797725962553     
  -8.91890481126608     
  -4.46078591371586     
 -0.138314949256314     
   2.63539208613460     
  -4.54571806052328     
 -0.125599413622094     
   4.46354565825219     
   1.70480617201991     
   3.77114555891568     
  -9.24710188075157     
  -6.41731612054628     
 -0.128810861582232     
  -7.55435404551573     
  -8.20002408295106     
 -0.117413039545932     
  -7.21422741378258     
   2.45022804101189     
 -0.121610265179865     
  -8.62032145555429     
  -8.43090711940590     
   2.07513426196379     
  -8.19244916514563     
  -4.50890716587030     
 -0.107755786875526     
 -0.171664061005043     
  -8.39281364427656     
 -0.106714428527155     
   3.45442654068811     
  -8.21452386002381     
 -0.106477972963769     
  -8.24673507588301     
   3.71646177714398     
  -3.62519747071434     
 -0.380581152466958     
   4.14624581198972     
 -0.100592282062145     
  -8.25729850574375     
  -8.35464235155043     
 -8.752710292533843E-002
   4.10281076512907     
   3.70432033932132     
 -9.726567790284300E-002
  -4.93962872213508     
   3.58107726578318     
  -2.80180460971730     
  -2.15811842073504     
  -4.10871464349248     
  -2.92317843417271     
   2.73326653540139     
   3.95617751951953     
   1.88997021693623     
  -7.87749567526433     
  -8.45515775303511     
 -8.162771705556701E-002
  -2.74770989368895     
  -4.20351766671266     
 -0.165152996162489     
 -0.157137519383976     
  -8.86735186214874     
 -0.154310003155677     
 -0.945760606418839     
  -10.0926438119034     
 -0.164360230911067     
  -1.92096634184651     
  -1.64736005102618     
 -0.153117355804143     
  -1.99244305787479     
   1.72606327154601     
 -0.162463468625670     
  -1.00080838027680     
  -4.15945364826218     
 -0.143725804884685     
  -2.63493690863022     
 -0.707440842157959     
 -0.139112022978736     
  -2.30659210975547     
 -0.365618755293909     
 -0.139523730920446     
  -1.29419277276488     
 -0.651659658442822     
 -0.178567007529827     
  -3.22145230813241     
  -1.54737069425668     
 -0.177831172818190     
  -3.79751469920978     
  -1.69906489442223     
   1.87825819339422     
  -1.75496324461993     
  -1.34994440507926     
  -1.05657520148610     
   1.88520452816597     
  -2.10378746635436     
  -9.59456348733607     
  -1.46147219406596     
  -1.64333117299288     
 -0.371531941672303     
  -2.69208734112365     
  -2.60910635580180     
 -0.189264643590976     
  -4.03658742608234     
  -2.04836503702082     
 -0.132669719206132     
  -1.91493589924394     
 -0.929320877375382     
 -0.120546180665631     
   4.58093836392770     
  -8.15357364912364     
  -2.34155465949179     
  -1.25080803675168     
  -1.40570144440937     
 -0.123001287372532     
  -8.18896398943514     
  -1.29427469856451     
 -0.111804415804305     
  -7.86801226133352     
  -8.29296839946170     
 -0.115220635400046     
  -7.97404028047283     
  -7.58656526179037     
  -8.83015083661771     
  -4.20503255934374     
  -7.81748295588670     
 -0.101805846978982     
  -8.27796849474730     
  -7.99140106472700     
 -0.101558376306983     
  -8.31639324123544     
 -9.184576321839666E-003
 -9.945732278270103E-002
  -2.45301877488546     
   4.23008929689573     
  -4.93025155240329     
  -6.85938157348532     
  -8.05062380616041     
 -9.496125363904373E-002
   4.15038926721396     
 -0.358312725088818     
 -8.228632776711685E-002
  -5.12554676188184     
  -7.88443895297232     
 -9.108923094794379E-002
  -7.90291876752035     
  -1.86316281985534     
  -4.95137553726582     
  -8.02223764151448     
   2.09031159286887     
  -9.16808601036425     
  -7.53743656478460     
  -8.54460876707391     
  -7.70598757437531     
 -0.215235416272393     
 -0.890622825287728     
 -7.486873458501397E-002
  -7.97739342727415     
   1.74134004072083     
  0.706275981668247     
  0.708111478539047     
  0.690300122816744     
  0.684473015698158     
   3.77005516229268     
 -0.589501496596956     
  0.731096065500550     
  -7.51844599690610     
  -7.74648704795027     
  0.703497896315013     
  0.688074491869446     
  0.706035001600907     
  0.681318366997388     
   3.70924280786348     
  -7.13815536413419     
  0.729355588330901     
  -7.48040621226671     
   3.59436419476912     
  -7.66141649673468     
  -1.06676476613234     
   4.42775980106482     
  -8.52193926776501     
  -5.17077356192622     
  -4.79714829801321     
   4.92912771430558     
  0.669151950672616     
   3.48585520444430     
  -7.91665016883668     
  -7.79031782849766     
  0.671527433576786     
   1.00149777313522     
 -0.695565566038357     
 -0.518466885581647     
  -6.78503820511409     
  -3.62653386907146     
  -8.20854403980665     
  -2.39816938980608     
  -7.24462061815826     
 -6.812109094380019E-002
  -8.12679824418684     
 -6.281245418752705E-002
   2.07989995395435     
   4.87124731831424     
  -8.40220309213841     
  0.770967436253300     
  -7.62816430072632     
  -1.78068242124738     
  -4.65178640671945     
 -0.300251090760715     
  -9.91964391077139     
  -9.67256692829801     
 -0.361079414901902     
  -9.20477858117096     
  -7.82268936885740     
  -3.04128998548778     
  -9.98954126659689     
  -9.51650355157502     
 -0.343898116986057     
  -9.55526558993357     
  -6.53850517236737     
  -1.10413401510025     
  -1.56979710079920     
   3.54569725310715     
   4.30655102165960     
  0.664719892312328     
 -9.203690788965790E-002
 -0.120483316530809     
   2.64015777461141     
   2.44357968498572     
 -0.131670856585998     
  -7.87630451411456     
  -3.09737201773223     
 -5.866212688806859E-002
  -9.01942404507218     
 -4.849034199632279E-002
 -5.227331464714852E-002
 -4.312884710225658E-002
   9.18629417797233     
 -0.310943038515793     
   3.40429694791490     
  -9.54890159963791     
 -3.975523927026913E-002
   6.71420172010684     
 -2.872062992318295E-002
 -3.324032817439824E-002
 -2.332100009881314E-002
   4.33699068728927     
  -4.78552241853839     
  -8.55534583902763     
   5.52512295273791     
  -2.98493902477570     
  -9.32419954601766     
  -7.17621317847910     
 -1.971154179645938E-002
  -5.60363187041170     
 -8.821959884463803E-003
 -1.316433045751750E-002
 -3.397189790836135E-003
  -7.53600043950192     
  0.661321559065435     
  0.649259526305168     
  -3.85573926541684     
  0.664818449457238     
 -0.636562018726159     
  0.651788967532356     
  0.696027396242030     
   3.83764228759711     
  -1.67170500685522     
  0.700267609475505     
  -7.70833392378991     
  -7.93741935116433     
  4.326955559305718E-004
  -7.63168720581685     
  1.118415975369979E-002
  6.999287126881224E-003
  1.662181189903614E-002
  -6.12118580237795     
  2.066591653136085E-002
  -4.40328894451193     
  3.129710763343932E-002
  2.723990101505187E-002
  3.673605503673934E-002
   4.73484832607888     
  4.097247367424996E-002
   2.45499373158441     
  5.147359783723267E-002
  4.754276041324328E-002
  5.690344126552611E-002
  -7.78457143938782     
  -4.55702841829627     
  -8.81838557745196     
  -7.52301343205763     
  -1.29560042587663     
   9.73905475115152     
   4.66797974970209     
 -0.159583531485942     
  -1.20716735265085     
  -2.26281145191256     
 -0.168059808639383     
  -4.90325428706418     
  0.252306178945977     
  6.134044302324088E-002
  -7.62606361379848     
  7.173461028816459E-002
  6.789681724091781E-002
  7.714561044951161E-002
  -7.26492823052248     
  -2.21053530812395     
  -7.59846588847065     
   9.96495685644865     
  -6.77242743866104     
   4.52025566705529     
   2.74080460287609     
 -7.806725734071904E-002
  -8.01241046145462     
   2.82624872305415     
 -9.495545141162241E-002
  -3.89732289140522     
  -7.10007955161515     
  8.176452473356492E-002
  -4.65327090051346     
  9.204646483129299E-002
  8.829749142809319E-002
  9.742950655024733E-002
  -4.60514966953464     
  0.102240836197318     
  -6.79592258893493     
  0.112421936216812     
  0.108741456974887     
  0.117768488017522     
  -6.48926009368053     
  0.122760712365145     
  -6.53633712891075     
  0.132846280052684     
  0.129220535328222     
  0.138147918038529     
  -6.08473683944442     
   2.85162650567274     
  -3.54964276664704     
  -8.13546725506682     
  0.674450156796085     
   3.10427355575001     
  -8.08868031459989     
  -9.91120556242248     
  -4.70139203235176     
  -3.25407461119266     
  0.655473753457740     
   3.05930664162066     
  -2.95850669779852     
  0.675165328907560     
  -3.30774202053836     
  -2.90627309173973     
  0.641814882192653     
  -7.23500621075795     
  -3.65788667415939     
   3.84985011634359     
  -7.52762303552545     
 -0.994697364557931     
  0.678652243079075     
   3.96188825586766     
   3.27958201756297     
  -4.30704491724427     
  -3.68799445772801     
  -6.99526551809538     
  0.660330494994434     
  -7.17306848674921     
   3.65162240341965     
  0.680241181284557     
  -6.87197653807697     
  -7.20328427168429     
  0.645589798434707     
  -7.53969094493034     
   3.37861798582229     
  -6.87263600983630     
   4.50781482942096     
  0.631578695623694     
   2.76007907218903     
  0.628895164377673     
   2.75928325473713     
  0.149732782711869     
  0.158556297682171     
  -2.01953043714779     
  0.143321745604816     
  -3.60516698295686     
  0.153306930004093     
  0.170267405463921     
  0.179003319079989     
   2.89600692040319     
  0.163912633959910     
  -6.90664362483031     
  0.173813952110419     
  0.184537952374955     
  -4.15249058813426     
  0.194361643298157     
  0.190829592646412     
  0.199484921611080     
  -5.87455303283787     