 TITLE="euler solver on unstructured grid" 
 VARIABLES= "X" "Y"  "P" "Rou" "U"  "V"  "nuT"
 ZONE NODES=       11173  ELEMENTS=       18178  ZONETYPE=FEQUADRILATERAL
 DATAPACKING=BLOCK
 VARLOCATION=([3-7]=CELLCENTERED)
 -0.306903530125339     
 -0.301915224801299     
 -0.302464464179508     
 -0.306378293933056     
  -7.45384746739514     
  -9.08971322769369     
 -0.300579699506085     
   9.46744875031431     
   9.42580183591945     
 -0.311869959716997     
   8.72670305998100     
  -9.90260715598970     
 -0.309357472553641     
   8.80669724261224     
   8.43696175897952     
   5.14622485116669     
  -9.63528826634714     
  -10.4685485536139     
 -0.317058816305267     
  -9.68162170183646     
   8.95503455179434     
 -0.313357693904652     
   9.45146062820922     
  -9.58854357824187     
 -0.317976040820524     
  -8.91653441930349     
   8.90158261465786     
 -0.311348751978426     
   9.02155391592080     
  -9.34333843158546     
 -0.307212055350007     
   5.85569871704486     
  -6.45061976676360     
   8.69738269695057     
  -6.37295605600624     
  -7.09779193573405     
 -0.302257793692092     
  -5.89595379424186     
   8.83959427913616     
 -0.311653461013314     
   5.54006429630220     
  -7.84728374996633     
   6.58255022104765     
   5.28499994686439     
   6.33200180276671     
 -0.307267443260339     
   5.52884067369729     
  -7.33747047054345     
 -0.314252765675358     
   5.92062970204479     
  -6.82268011458115     
   6.45141391572536     
   6.47382156585544     
   8.87769098636984     
 -0.306920850461387     
   9.32914967081607     
  -6.45528310004722     
 -0.311868509475979     
   7.73523247810735     
  -9.47654177658555     
 -0.301268113428389     
  -5.93468027886767     
  -6.09568186505912     
  -9.09520607881347     
   7.24777877283192     
  -8.19341605512047     
   5.89871936399976     
   8.59604835154820     
  -5.68738436406876     
  -7.30282668250208     
  -7.29240160724037     
  -9.42248773605454     
 -0.286591980196176     
 -0.285720365487742     
 -0.281201648084466     
 -0.291900415019894     
  -7.38825485456744     
  -6.69537638262694     
 -0.290929603642824     
  -7.86900988584281     
  -6.83679148119981     
 -0.287314118185447     
  -8.81574888965068     
  -6.54120713125725     
 -0.292811297772685     
  -8.34315817283387     
  -8.98195436917976     
 -0.296579108660375     
   9.04277395588856     
  -9.60496017997766     
   8.18946156326498     
   6.19121511483377     
   6.04235140160137     
 -0.300646402004839     
   8.13808440069611     
   5.68162499092308     
 -0.287920395347029     
  -9.47616604721184     
  -8.42062583235406     
 -0.283029051454780     
  -7.93990745927953     
   7.98856121658379     
 -0.281087513101718     
  -8.49180000332209     
   7.85858704129906     
 -0.276330322303665     
   9.54626266807932     
   8.33840344775138     
   8.65921740488115     
   7.41614930006202     
   6.32121198121430     
   4.79718119022390     
  -10.0971406260999     
  -7.45943818642160     
  -6.22845173435863     
  -8.43672399067734     
  -7.35309060293720     
 -0.289882150522142     
  -8.01105833284479     
   7.09449940352762     
 -0.284067451400008     
 -0.278774486859457     
 -0.283521236432853     
 -0.289561237013878     
  -8.01060132662631     
  -9.09564066860035     
 -0.288250936301753     
  -7.64781631025454     
   7.72860402428107     
 -0.284434998215591     
  -7.51285550252955     
   8.04566395165618     
 -0.289826764260815     
   8.31524267512867     
   7.15619214414825     
 -0.285574066176937     
  -7.80324740317530     
   5.45814559701039     
 -0.295511866779476     
   7.46575284953084     
   7.28617495672864     
  -9.20358791356853     
   5.20806131863972     
  -8.50159996506286     
 -0.296867320127355     
   7.57379840652308     
   4.75685485993069     
 -0.280337725918569     
  -8.57707581243817     
   7.89063671623157     
   5.92741967206162     
  -8.27891361847803     
   9.08585888875381     
 -0.273693833018438     
   7.54912103411801     
   8.49452935870060     
 -0.278112527137340     
   7.74470805376717     
   7.52765261027324     
   6.71373863890619     
   5.46786728304609     
   6.58380569534400     
  -9.03689606807627     
  -6.97864044108070     
  -6.90764595436116     
 -0.287934460490067     
  -9.89067272007930     
  -6.00764681231297     
 -0.294684770175610     
   7.04088851424289     
 -0.291962996522046     
  -8.07136062225584     
  -6.60689816685501     
  -6.21141351976476     
 -0.295507893679373     
  -5.69979638654895     
  -8.69778360204686     
 -0.296352468962255     
 -0.293632372116033     
   7.06080090878332     
  -8.56295707607793     
  -7.99676376276538     
   8.14260844969262     
 -0.296870922300314     
   5.55562701393120     
   8.20200532191298     
 -0.306009526470947     
 -0.298425790552490     
  -8.08311096651612     
   9.00381125040852     
   8.09523878136534     
   4.77988416019503     
 -0.303515721966429     
  -6.29380448809790     
   6.00904156745783     
  -10.4345796665959     
  -6.23646692241495     
   5.36831063487874     
   7.02599621331106     
   6.59300627519755     
  -7.51394894628408     
  -8.81227229204661     
   7.10870871510931     
 -0.299458360554037     
 -0.303871620412390     
  -5.84747809944471     
  -6.89571965956724     
 -0.306393556058000     
   5.98986442172566     
  -9.26549011348835     
  -8.87536367929727     
  -9.83857291961433     
   6.79140611984677     
  -8.85439875202368     
  -5.30877307112199     
  -9.62454812299539     
 -0.300182554481172     
  -9.64146075541851     
  -7.49256699514809     
 -0.306937682934996     
  -9.74721587565139     
  -1.59309902866456     
   6.28259562281569     
   6.33477117513740     
   4.84487698355852     
   6.61683748948716     
   4.32253053721373     
  -1.02003813425687     
   5.37997891222825     
  -1.41868930745109     
  -6.95233527212821     
  -8.37826190337238     
  -7.00787596105834     
   9.48542951522724     
 -0.272931276942243     
 -0.268216716565565     
   6.14131807289757     
   7.46411165902494     
   9.40173932011244     
   5.68660011963921     
 -0.268448400625606     
  -10.5478092899893     
   6.97371253828894     
 -0.274515602695724     
  -7.53083193424856     
  -9.90419591703485     
 -0.268623909442888     
  -5.39312004360770     
  -8.09798071071866     
 -0.264027563342953     
  -7.89494773990451     
   5.33966479733768     
 -0.260222145963090     
   8.31607644206778     
  -10.4232567042566     
 -0.255571738057673     
   8.44573683110539     
   6.93352091721178     
 -0.274991005039494     
   5.03355943129500     
   7.87219601367525     
 -0.262224190914595     
  -8.75372188566399     
   9.10245498664086     
  -10.0651680245986     
   7.20028459656440     
   5.98361403316278     
   8.53199026204335     
   4.79866803662406     
   7.02223539603128     
  -9.59584345016150     
  -10.0198761752412     
  -9.22375320169602     
  -7.18165413486668     
  -9.49035565532099     
  -6.28399211096846     
 -0.275918800022856     
   5.46187718995966     
 -0.271049245744794     
  -6.28265106147102     
   1.27281628282736     
   1.03928174676623     
 -0.271599192019014     
  0.688604601996361     
   9.61847432208175     
 -0.277854038815203     
  0.681560291751052     
  0.957261076858768     
 -0.272108927015074     
  -3.35118601335783     
   4.94989176241727     
 -0.267325794716118     
   9.30319515783889     
  -5.61799190184078     
 -0.263992689415769     
   8.92308297320010     
   9.04529186845012     
 -0.274521791015005     
  -9.99144047497605     
   1.03193964134371     
 -0.258775458192268     
   1.48343016552810     
  -9.99880812010137     
 -0.265244584050529     
  -10.0290713303779     
  -5.25907128888538     
  -3.64996470053820     
  -3.86778230741880     
  -9.82961775093247     
  -8.13353930168998     
   3.97441527553693     
  -3.54161410496834     
  -6.91139749760596     
  -5.78235159589878     
   9.09191246044487     
  -2.04034963491077     
  -9.96134197646798     
  -5.40872020711562     
 -0.300218031547068     
   6.39037382221326     
   6.31518958258325     
 -0.307706730845052     
  -9.63666913239384     
   4.70502134366417     
 -0.302416076646821     
   9.12653107234879     
   2.03680006668987     
  -7.04954597071768     
  0.315437669137889     
  -5.27309994733447     
   5.02356473507731     
  -9.44578815047412     
  -10.0442198014538     
   4.95024282211293     
   8.17460127632143     
   5.99518019349022     
  -9.92305709299486     
   8.11907940932274     
  -9.07314093761912     
 -0.299093851383845     
   6.58746341593527     
   7.59900611281018     
  -9.56708404193778     
   1.05602521923657     
  -8.41957884682531     
  -9.99723025056253     
  0.312234033761291     
   1.34702202117526     
 -0.306065545312608     
  -10.4119337419172     
  -1.43729196345032     
 -0.295113979130861     
   3.73293168193785     
  -3.94324121396243     
  -5.60604580772889     
   5.07401662877131     
  -4.00448494897576     
   9.83785671413738     
  -4.36010545623182     
   7.53554660331271     
  7.876634729758243E-002
  -10.0764909869379     
  -4.40032032475992     
 -0.254007771466164     
 -0.248080675919712     
   2.83977639034308     
 -0.247792381335918     
  -9.78496031913748     
   7.02049683184841     
 -0.253666650894610     
   9.56469025160261     
   7.56439018810462     
 -0.248896310095266     
 -0.796700150543713     
  -9.88587691234167     
 -0.242002713618808     
   7.79980665279279     
  -8.34557627514609     
 -0.239522265366005     
   7.41015174232060     
   9.23070870344176     
 -0.241089178709624     
  -6.47130429446437     
  -5.66619137615846     
 -0.229668180174297     
  -6.86095920493656     
   9.88881004424259     
 -0.250525664232973     
   9.90013300658193     
   9.44869626123118     
 -0.255596290245370     
   1.13512332121092     
  -7.64026902588093     
   5.62265150412660     
  -10.4459026289352     
  -8.02992393635312     
   5.92553467211106     
  -1.12746174598794     
  -10.4572255912746     
   5.26718140738207     
  -1.27569179418860     
  -3.40404137054534     
  -7.25061411540874     
  -1.37483485313313     
  -5.98552866085411     
   5.22402461885642     
   1.52349389463294     
  -5.30606100413238     
  -2.44156736545644     
   4.95859031425505     
   6.37750889242962     
 -0.261523803950787     
  -6.71288426269968     
   3.11400649848705     
 -0.257571399602796     
  -10.1366877144657     
 -0.251466141162654     
 -0.251504741430842     
   4.13997406642970     
   9.13620388733092     
 -0.257491316746133     
   4.06696202014195     
   6.92607811476729     
   3.14257453509293     
  -10.5251633653106     
  -9.12488609609048     
 -0.252965481448050     
  -8.73523118561829     
  -5.94356609150204     
 -0.245853691635279     
  -5.68381316108856     
  -7.95592136467391     
 -0.243090372701044     
  -4.32755076567524     
  -10.0085532129019     
 -0.245318508866051     
   6.01498424713888     
   9.32062397453947     
 -0.233420538225479     
  -8.53254524346337     
   8.97316752902359     
 -0.255094983267726     
   5.92938464658987     
  -8.86171641342900     
 -0.259732720940446     
   4.84613183648957     
   5.60185632958696     
   3.36372149273180     
  -8.80923375729750     
   9.10934947280480     
   8.73201492934968     
   9.28831700605642     
   9.08662671419509     
  -9.51454100656266     
   9.47449396622348     
   8.57911647373717     
   3.67229115824545     
  -9.78864941578486     
  -10.5364863276499     
   1.05562548868494     
   9.38618536627182     
  -9.77907539866182     
 -0.265987730317065     
   9.59766954676217     
   8.91579937680720     
   6.70484449305544     
  -8.23031010289043     
   4.56833516058693     
  -9.47134726825253     
  -6.46550530352148     
   5.55318084811589     
 -0.322913133690241     
   5.09062331049938     
  0.588211555286245     
 -0.303357037841542     
  -6.39730172278516     
   5.85153210043186     
   6.24118701090404     
   6.84372355582196     
   5.52012794125530     
   9.28066256102004     
   9.51939840224525     
  -3.47752650592386     
  -1.41628559504911     
   3.34531018825355     
  0.435986059106240     
  -5.64766736319095     
   3.75754055209544     
  -3.54354687198061     
  -5.46340242190419     
 -0.686204877787748     
   2.34693983898617     
 -0.324537510390662     
   5.14448688328581     
  -8.93852488301833     
  -4.27039369239751     
  -2.06177278649052     
  -6.54234536607153     
 -0.246236482503524     
   9.21064755823602     
  -8.85113633370123     
 -0.241409714834960     
   5.07176865687032     
  -7.56626645420172     
 -0.313549030662519     
   4.95314676930875     
  4.362114526736571E-002
 -0.255587683825096     
  -3.32282269199837     
   8.90374395247956     
 -0.250031663534500     
  -7.17661154372953     
  -9.19888866776968     
   2.24912546597947     
   3.38048110301842     
  -5.72949893937494     
   5.24084591482076     
   3.12271099663477     
  -10.0425220999199     
   9.34881235149525     
  -3.86716697042832     
  -6.19630913382119     
  -3.12658093921682     
   1.59210333460653     
  -5.21775661473782     
 -0.511253214031866     
  -8.68710367003703     
  -9.78046020613893     
 -0.321956033308356     
   8.26964407947825     
  -8.07189411319380     
  -5.78492576474098     
   7.09108083800699     
   7.93636641127555     
 -0.308959935020521     
  -5.83579543990033     
  -4.58367535223522     
   2.50185291294055     
  -4.41430050005025     
   5.06822258104800     
 -0.325100762341174     
 -0.980258825571924     
   3.00820657633158     
   5.03101478994640     
  6.604466857614003E-002
  -7.53400054735221     
   2.98047718600504     
  -6.84471599716555     
  -5.09797740889715     
 -0.232637106110810     
  -4.85306184302669     
  -1.06949573027912     
 -0.228206002335108     
  -10.5025174406319     
  0.252421270554855     
  -5.31321197273547     
   4.82852895437125     
   3.98278464300846     
 -0.317473326565287     
   2.23885781300593     
  -10.4911944782926     
 -0.333954000731097     
  -6.91037574538375     
   3.43031272284686     
  0.318343195344779     
  -5.28358137717986     
   5.21499352585099     
 -0.293375442593186     
   3.11161557043291     
  -3.15776886109667     
   2.05329535338231     
  -3.46208996136850     
   10.0020396676360     
   2.59611135871645     
   2.37875259429839     
  -5.92153493621781     
   4.26014901899602     
  -5.69199447352000     
   4.36116344184231     
 -0.339825830839562     
   4.02108045327867     
   3.19816121956629     
 -0.224449207576153     
   1.18362569604793     
  0.492084485779559     
 -0.229684729149044     
  -10.0336243914220     
   1.66546874453987     
   1.04020287801950     
   1.27677914808385     
   2.81395565839707     
   8.89599043170316     
   6.63084192137623     
  0.854882494296690     
   3.94104728610645     
  -3.63845934542823     
   4.55031577305108     
 -0.222212488047724     
   1.42709718015129     
   1.45359774744053     
 -0.218273765674181     
  -10.4798715159533     
   1.50355935943835     
 -0.337561887644411     
  -10.1104598739559     
  -7.55167922202737     
 -0.331908006823607     
   2.40127438162175     
  -7.58735007589424     
 -0.319587139042485     
  -8.59950663349390     
  -3.50933375265207     
   8.26346413494419     
   6.84932040754092     
  -2.34160098397823     
 -0.340996740656908     
   4.38359931106609     
  -8.16059207391434     
  -9.07361511242665     
  -7.85614051753432     
   3.38483649060891     
 -0.354656046122644     
  -7.22325225925900     
  -10.2703967147846     
  -8.89044204577925     
  -9.03589197448649     
  -7.28363694303776     
   4.36789194076556     
   2.38716128855548     
  -9.51770858459912     
 -0.328114923892421     
  -9.59102007497928     
   3.07142931476024     
  -7.28326012102033     
  -10.0878139492772     
  -8.50265622488322     
 -0.216577015353809     
 -0.205211390295527     
  -9.85495583968655     
  -9.14906138830583     
  -8.45694966540257     
   9.55336728926327     
 -0.204593365807565     
  -8.67850133358100     
  -8.58147911691821     
 -0.190539929124609     
  -8.94092652360668     
  -9.17824392670494     
  -9.04182801672033     
  -6.41148299089887     
  -9.24038171318915     
 -0.221079881109510     
  -5.42775132730910     
 -0.209334672384757     
  -9.35473210543882     
  -9.18678452624544     
  -9.30240898579614     
 -0.209467765630526     
  -8.99812810509113     
  -8.57130255748873     
 -0.194842210935092     
  -8.98120581450900     
  -8.46493308689962     
  -5.54756951232605     
  -8.96023188638290     
  -9.38240080493863     
 -0.312353974165583     
  -6.34331990732689     
 -0.912389618665696     
 -0.303878706051683     
  -1.03398222741064     
  -1.98404582390870     
  -1.76122253259419     
  -9.18300879879965     
 -0.589069109056988     
 -0.327548024836710     
  -4.69577862456051     
  -9.54517526360976     
 -0.317173859594310     
  -5.91237108879516     
  -8.54051334818008     
 -0.316498702484904     
  -8.77940282669465     
  -4.76746872571511     
  -5.96075543632060     
   4.85416782221547     
  -9.50899083617484     
   1.24172014715278     
   5.83046996528639     
  -8.76927409968529     
  -10.2491661607147     
  -9.11133825036627     
  -4.81519640515079     
   9.50807543990592     
  -9.92690516624274     
  -9.10366344264143     
  -4.40892944266335     
  -8.75776087888659     
 -0.677963371468594     
 -0.278160176064248     
   4.68588743918865     
  -3.17504790473813     
  -9.58568841816682     
   7.87380922447201     
  -9.21486606118556     
  -9.48959435856942     
  -3.81381402549296     
  -3.39372080545144     
 -0.285742857061587     
  -8.92220331836165     
   9.16021444253267     
  -7.89119797394442     
   1.47524274228379     
   9.38821175038904     
  2.801095634265477E-002
   5.46702800428437     
  -8.71878062405969     
 -0.189184920556104     
  -8.02908579472084     
  -9.54676402261873     
 -0.174436293288505     
  -9.48693663127413     
   1.69096639082026     
 -0.195579194784319     
  -7.91274493024243     
  -9.14272950983398     
 -0.194180287391155     
  -3.97916630219923     
  -4.71311490026809     
 -0.178907245182856     
  -3.19939377736535     
  -5.09008033953844     
 -0.201361092942618     
  -8.86817458956590     
 -0.316163888465527     
  -9.50771899468591     
  -7.54990184690948     
  -10.1996282012182     
  -8.48125684058364     
  -8.80699723762479     
  -9.71733670456583     
 -0.324164612884820     
  -7.31142814869751     
  -3.99284281464951     
  -9.88036075787026     
  -8.61787913067349     
  -3.93865997949088     
  -8.51696936422924     
  -7.16758280599223     
  -8.88030431980829     
  -4.66538722082990     
  -8.84472037556433     
  -8.82960682685143     
  -4.30383142727130     
  -3.34392546477718     
  -4.93472173552712     
 -0.170377201532148     
  -4.86292408489061     
 -0.161850698791496     
 -0.159674684547798     
  -8.69384722435755     
  -8.65815841200000     
 -0.170275589227258     
  -8.35545394097812     
  -8.58001271396350     
 -0.159203677041582     
  -7.89962239659667     
  -9.24363100294761     
 -0.169339077500657     
  -7.91075612470143     
  0.623910129466224     
 -0.149403220071703     
  0.868663080502241     
  -8.96853090586545     
 -0.143962285533699     
   3.19411225989165     
  -6.45119280155304     
 -0.146068683017403     
  -5.08299221744797     
   2.25087588407225     
 -0.184059740607810     
  -8.73155096174547     
  -8.22989561299046     
 -0.184166560991575     
  -3.91201137172554     
   9.49675247756658     
  -8.87930831767416     
  -8.25453820353397     
  -8.86911261923417     
  -3.60138923326968     
  -8.55725692343799     
   4.54806296328757     
   9.02140452435315     
   3.52465994219190     
   3.76140318481083     
  -8.65601113774573     
   9.13500377572587     
  -3.75577930919569     
 -0.196671463992315     
  -8.92058360540600     
  -4.46912341497684     
 -0.138220042730478     
   2.62596654240756     
  -4.54253197084190     
 -0.125514515640977     
   4.47242813529673     
   1.69641937927060     
   3.76165607199536     
  -9.25151544129743     
  -6.41259613026640     
 -0.128712768592508     
  -7.55821545168043     
  -8.20344170628269     
 -0.117318122237291     
  -7.20960156498769     
   2.44114770737885     
 -0.121501750143541     
  -8.61804270178907     
  -8.42720994896079     
   2.06605704902619     
  -8.19393024095447     
  -4.51685109441149     
 -0.107654567362080     
 -0.179902876893013     
  -8.38951154434557     
 -0.106627131970113     
   3.46337410069792     
  -8.21876188488228     
 -0.106357891703200     
  -8.25216306919779     
   3.72643784255148     
  -3.62880925779286     
 -0.388490258781340     
   4.13675437105678     
 -0.100496444380325     
  -8.25249991416806     
  -8.35173558974907     
 -8.743771643923520E-002
   4.11183024233141     
   3.71391068457216     
 -9.716014831478854E-002
  -4.94887175897860     
   3.57198869912560     
  -2.81011559825510     
  -2.16633375184335     
  -4.11721027793290     
  -2.93295451327465     
   2.74297563754385     
   3.94708699885147     
   1.88123821409276     
  -7.88113659419594     
  -8.45635543324430     
 -8.151145771841797E-002
  -2.75641587105834     
  -4.20857852430413     
 -0.165251548570853     
 -0.157226681734103     
  -8.87023535137930     
 -0.154410735725765     
 -0.955599134565755     
  -10.0991369116166     
 -0.164471125555601     
  -1.93087087435630     
  -1.65767913575048     
 -0.153230963810776     
  -2.00183819579131     
   1.71627550640851     
 -0.162591486455897     
  -1.01024705306809     
  -4.16755185880825     
 -0.143831807732816     
  -2.64443379414869     
 -0.716632365486235     
 -0.139203083977380     
  -2.31628085876465     
 -0.374548842857701     
 -0.139645127184548     
  -1.30387858367034     
 -0.661243625460278     
 -0.178670777005051     
  -3.22499236053225     
  -1.55724730880939     
 -0.177949997065568     
  -3.80158303706151     
  -1.70821292805097     
   1.87028563516397     
  -1.76371851554539     
  -1.35923776783228     
  -1.06562142868586     
   1.87578522582974     
  -2.11239648786882     
  -9.59179178586924     
  -1.46997980782026     
  -1.65287165847158     
 -0.380095141656327     
  -2.70118861752103     
  -2.61901152736816     
 -0.189402990166464     
  -4.04027263666448     
  -2.05736740027114     
 -0.132773108150886     
  -1.92251424189677     
 -0.936943524566664     
 -0.120638783547757     
   4.58491388791930     
  -8.15362453462261     
  -2.35080444458969     
  -1.25828676039957     
  -1.41460236352591     
 -0.123107262638947     
  -8.19197297911917     
  -1.30136642931993     
 -0.111906508125799     
  -7.87124542842938     
  -8.29483173003482     
 -0.115336563766884     
  -7.97169148086617     
  -7.59161663641189     
  -8.83552113060431     
  -4.21273869744426     
  -7.81997839848749     
 -0.101913626234636     
  -8.27585209743147     
  -7.99211761349600     
 -0.101652192263037     
  -8.31388208517934     
 -1.866669221559247E-002
 -9.958385027308277E-002
  -2.46147926834571     
   4.23790401273731     
  -4.93689245928400     
  -6.85451426983302     
  -8.04748477434499     
 -9.506321257864518E-002
   4.15900046029615     
 -0.367649544723179     
 -8.238102978883746E-002
  -5.13186361157488     
  -7.88848866848417     
 -9.120065646085311E-002
  -7.90471651418897     
  -1.87113334957274     
  -4.95837944115460     
  -8.02443156352627     
   2.09914658299518     
  -9.16697223195835     
  -7.53623468218229     
  -8.54903510127902     
  -7.70555085064025     
 -0.222788420046257     
 -0.897868596803539     
 -7.498989260690955E-002
  -7.97596765955461     
   1.74997165707279     
  0.706249254398422     
  0.708097142123460     
  0.690282606925284     
  0.684438986434266     
   3.76130927483605     
 -0.597080882083321     
  0.731088355009352     
  -7.51405231917921     
  -7.74311537069850     
  0.703568752622396     
  0.688135153932140     
  0.706093603926161     
  0.681395148549549     
   3.71371065083674     
  -7.13431917367699     
  0.729409014186024     
  -7.47640736921697     
   3.59925089276393     
  -7.66817233371635     
  -1.07539404967543     
   4.43623393545887     
  -8.52513078712852     
  -5.17844757674689     
  -4.78700405780020     
   4.92173331374797     
  0.669214654628088     
   3.49021510075878     
  -7.92188985280483     
  -7.79026983102058     
  0.671506695848541     
  0.992748048658201     
 -0.704348238274494     
 -0.529066975084504     
  -6.78096066227440     
  -3.63598715079751     
  -8.21237134152975     
  -2.40702422091221     
  -7.23967889058854     
 -6.802990408455405E-002
  -8.12286893600430     
 -6.290773955605965E-002
   2.07151004050992     
   4.86175802830151     
  -8.40449048822591     
  0.762750267237696     
  -7.62878198178852     
  -1.78686864364842     
  -4.66158490214614     
 -0.300352842487894     
  -9.92286995443535     
  -9.67679171529444     
 -0.361107117481014     
  -9.20958153406931     
  -7.81852792293781     
  -3.05024342029263     
  -9.98843031209197     
  -9.52114332006278     
 -0.343861089971207     
  -9.55104380713949     
  -6.53879754470472     
  -1.11235823042884     
  -1.57752192517414     
   3.55383742225866     
   4.31079719804434     
  0.654869112288369     
 -0.101150267474885     
 -0.120633928095123     
   2.63141953037715     
   2.45299667917924     
 -0.131530224691329     
  -7.87551012041677     
  -3.10592717560924     
 -5.855165580723183E-002
  -9.02148509397599     
 -4.839761147125145E-002
 -5.238725825243938E-002
 -4.322444551039761E-002
   9.18720418584795     
 -0.310860760630885     
   3.41364928200179     
  -9.54999565969614     
 -3.964195970178833E-002
   6.70429080685531     
 -2.862661019802145E-002
 -3.335589266543836E-002
 -2.341664884199071E-002
   4.32927285289091     
  -4.79580973523047     
  -8.56016882938483     
   5.53587976163888     
  -2.99428873561872     
  -9.32598492056331     
  -7.17198216710516     
 -1.959706701804983E-002
  -5.60902254319780     
 -8.726875352444489E-003
 -1.327983432337441E-002
 -3.492656809240940E-003
  -7.53904915036266     
  0.661403730854546     
  0.649324313978717     
  -3.86359842971154     
  0.664777788780766     
 -0.643443206997808     
  0.651764905551591     
  0.696123721087153     
   3.84180495609399     
  -1.67864614857120     
  0.700214991749455     
  -7.70535739725998     
  -7.93551460812528     
  5.481415737410202E-004
  -7.62950076280138     
  1.128009697184151E-002
  6.884073746551199E-003
  1.652674506925001E-002
  -6.12605330067391     
  2.078212585186416E-002
  -4.40941715501196     
  3.139369720030956E-002
  2.712519125249524E-002
  3.664159505819355E-002
   4.72783804895822     
  4.108925363313256E-002
   2.44660069744384     
  5.157065893632700E-002
  4.742875117677973E-002
  5.680977260723644E-002
  -7.78080478532726     
  -4.56457877411719     
  -8.81968211682798     
  -7.52565736238382     
  -1.30224711288684     
   9.73878079514451     
   4.67234191895404     
 -0.159756991719865     
  -1.21502125801763     
  -2.27024104460793     
 -0.167913582218554     
  -4.91065176367454     
  0.243116878279646     
  6.145761597983308E-002
  -7.62821521335184     
  7.183197436063507E-002
  6.778368969614744E-002
  7.705290665693082E-002
  -7.26544705287386     
  -2.21835788228185     
  -7.59679427082718     
   9.95674781827862     
  -6.76794575120112     
   4.51150587159395     
   2.75110099916729     
 -7.823137630150263E-002
  -8.00966666854487     
   2.81716526245599     
 -9.479659080707370E-002
  -3.90213204438709     
  -7.09663816833923     
  8.188192553404140E-002
  -4.66003411086366     
  9.214397323521645E-002
  8.818541394450861E-002
  9.733792916291314E-002
  -4.61230645263544     
  0.102358309350792     
  -6.79224906486689     
  0.112519440970852     
  0.108630588033397     
  0.117678188732412     
  -6.49420385045389     
  0.122878110661493     
  -6.54054559691716     
  0.132943634605082     
  0.129111024601729     
  0.138059046203347     
  -6.08912982461121     
   2.86010200198878     
  -3.55726312915328     
  -8.13804274124309     
  0.674545136001791     
   3.11338787867487     
  -8.08514579827632     
  -9.91188217984211     
  -4.70776166990419     
  -3.26145080515443     
  0.655579646681321     
   3.06881495279278     
  -2.96563872301729     
  0.675275690215712     
  -3.31472420798039     
  -2.91379810464502     
  0.641901330726669     
  -7.23907596372833     
  -3.66471665176218     
   3.85822235877204     
  -7.52785844797306     
  -1.00159614214964     
  0.678599618968435     
   3.95417236250271     
   3.28709530227212     
  -4.31396100680103     
  -3.69704870047838     
  -6.99717805335244     
  0.660265789351362     
  -7.17542599709054     
   3.65894981503917     
  0.680173247195215     
  -6.87465633633016     
  -7.20485102485693     
  0.645543648511972     
  -7.54138983242865     
   3.38558983557174     
  -6.87301835261772     
   4.51393666042033     
  0.631551292306797     
   2.76419923855541     
  0.628962023311658     
   2.76855355474383     
  0.149624771658426     
  0.158468983521055     
  -2.02632282316112     
  0.143438929912557     
  -3.61239174107796     
  0.153404006173359     
  0.170161026268532     
  0.178917699693298     
   2.90408232006952     
  0.164029473728971     
  -6.90528208187816     
  0.173910615457319     
  0.184654327993886     
  -4.15798342749420     
  0.194457788077203     
  0.190724966861090     
  0.199401105099799     
  -5.87971965684088     