 TITLE="euler solver on unstructured grid" 
 VARIABLES= "X" "Y"  "P" "Rou" "U"  "V"  "nuT"
 ZONE NODES=       11173  ELEMENTS=       18178  ZONETYPE=FEQUADRILATERAL
 DATAPACKING=BLOCK
 VARLOCATION=([3-7]=CELLCENTERED)
 -0.307129397051368     
 -0.302219171591922     
 -0.302592020509457     
 -0.306739934017767     
  -7.62180249484703     
  -8.87066016238828     
 -0.301061394278882     
   9.19806749303451     
   9.23359892677989     
 -0.312166322779840     
   8.52439870326941     
  -9.68139228255451     
 -0.309841618640033     
   8.62511293291585     
   8.65481569038032     
   5.44791367484927     
  -9.47159154481512     
  -10.2668513530016     
 -0.317480527894435     
  -9.47792572806458     
   9.17002447229113     
 -0.314055628018744     
   9.73534023227949     
  -9.89210583150180     
 -0.318095547245663     
  -9.18677265671617     
   9.09624182630613     
 -0.311492625317777     
   9.25275012442443     
  -9.10436837877113     
 -0.307270115531285     
   6.12144561823119     
  -6.62609496592097     
   8.41830089095674     
  -6.58894270761774     
  -7.28775192950460     
 -0.302208640776519     
  -6.09345474322041     
   8.58680046162405     
 -0.311666764423715     
   5.78666109095654     
  -8.11567775992198     
   6.87170811571841     
   5.55819668725686     
   6.12243365816566     
 -0.307157465654292     
   5.29540362988837     
  -7.62091581260464     
 -0.314096764424165     
   5.69896971769266     
  -6.55661888955976     
   6.72075300713682     
   6.24184919532171     
   8.64318447297406     
 -0.306626246473515     
   9.11188491668172     
  -6.17241106702357     
 -0.311461164858029     
   7.49263820564680     
  -9.21545327308804     
 -0.301040231937142     
  -6.20053221283354     
  -5.83385002114508     
  -9.25585274844109     
   7.01800716733216     
  -8.47874773042690     
   6.18610624907045     
   8.88360223441312     
  -5.90705552779939     
  -7.04549824631490     
  -7.01275896104732     
  -9.60317542083383     
 -0.285411243084093     
 -0.284707030792018     
 -0.280068838634856     
 -0.290817479985888     
  -7.62755549903970     
  -6.96491635214046     
 -0.289671224868348     
  -8.11886757425535     
  -7.08343012143983     
 -0.285950865064752     
  -9.06850941069051     
  -6.73985368962184     
 -0.291396013698099     
  -8.60508703275864     
  -9.21923347790142     
 -0.295321630247771     
   9.34610604534986     
  -9.83246563773514     
   7.89339671005771     
   6.42518844230351     
   5.84846592944561     
 -0.299175963499705     
   8.33963159819201     
   5.90781772427275     
 -0.286246708840952     
  -9.72815954310034     
  -8.66315611618212     
 -0.281760814505160     
  -8.17187861072698     
   8.23722218322645     
 -0.279672207369489     
  -8.71645453391999     
   8.08976406197336     
 -0.275087532884841     
   9.30354102838328     
   8.57512786904068     
   8.90876550300515     
   7.65966583933491     
   6.57267012950507     
   5.00095448165639     
  -9.85183152468754     
  -7.68086147360209     
  -6.06318363115400     
  -8.17141303734391     
  -7.61228212742926     
 -0.289000208187330     
  -8.22514417780271     
   7.39700986009956     
 -0.285488848924687     
 -0.280143451325909     
 -0.284774633609280     
 -0.290889388009172     
  -7.79970459529912     
  -8.89898384288553     
 -0.289753569039264     
  -7.42380253340062     
   7.94229703311156     
 -0.286039371294418     
  -7.30690831967841     
   7.83774763588297     
 -0.291487760416267     
   8.07714788381910     
   7.36474093399354     
 -0.287409400167260     
  -7.56064909354816     
   5.66774574224313     
 -0.296993571908809     
   7.25343712932166     
   7.51220755552734     
  -9.02478388270373     
   5.40089051645519     
  -8.29609869729490     
 -0.298643588708410     
   7.38070066501365     
   5.01760416044915     
 -0.281843547798148     
  -8.39055557157916     
   7.66543119902657     
   6.12417800166237     
  -8.05153973702098     
   9.25572706496355     
 -0.275168580471824     
   7.81157328640282     
   8.66569045237911     
 -0.279763660589144     
   8.03208766327857     
   7.26964322890504     
   6.93462623271413     
   5.27646979426289     
   6.78720936549289     
  -9.25447879228369     
  -7.18950853184890     
  -7.13640000242429     
 -0.289060081587223     
  -9.70536326152126     
  -5.71066183685922     
 -0.295787846874249     
   6.84146536638683     
 -0.292946822848525     
  -7.89476904874498     
  -6.37373551068648     
  -5.96771010860834     
 -0.296335268224698     
  -5.45443673915205     
  -8.88722258615863     
 -0.295533400133163     
 -0.292895505035697     
   7.33771094042218     
  -8.76973659457694     
  -7.80120710388889     
   7.95672633847906     
 -0.296293367739332     
   5.34596367219722     
   8.46939539465363     
 -0.306627217068891     
 -0.299084017383880     
  -8.27932699704007     
   9.27137790399589     
   8.27997005645998     
   5.06170420260073     
 -0.304289632541253     
  -6.52914753260611     
   5.75773666802586     
  -10.2678955811502     
  -6.52522127203999     
   5.11561626190566     
   7.21705933824581     
   6.75375580992822     
  -7.34716486476205     
  -8.57508929358960     
   6.92542552218754     
 -0.299052275435416     
 -0.303333186202718     
  -5.63874151287131     
  -6.72037429250648     
 -0.305974635639469     
   6.14844837451326     
  -9.41137894452320     
  -8.61858472467276     
  -9.98235440066048     
   6.62190506133179     
  -8.57518044111196     
  -5.57084657871181     
  -9.78379357102041     
 -0.299505522200127     
  -9.84718618525614     
  -7.30697111631520     
 -0.306146196348470     
  -9.46572205964655     
  -1.75472822887339     
   6.45275350799945     
   6.17979841799971     
   5.02218975189945     
   6.43031567857843     
   4.51467003166516     
  -1.18545589590612     
   5.10641198930549     
  -1.59316335061927     
  -6.75411836204699     
  -8.13023949432424     
  -6.85183882901389     
   9.73429600413082     
 -0.274586689241533     
 -0.269790228679348     
   6.35705921573348     
   7.64262369325440     
   9.22528979677958     
   5.86439212647455     
 -0.270186100467658     
  -10.2644148206547     
   7.22956846278925     
 -0.276352607316013     
  -7.73437082122102     
  -9.60885420735981     
 -0.270534004043192     
  -5.67683491250363     
  -7.94019021237282     
 -0.265839416099768     
  -7.63196191175428     
   5.50094287480399     
 -0.262275909126198     
   8.15031903468577     
  -10.2682436571998     
 -0.257331296575453     
   8.29585667234502     
   6.77885136748169     
 -0.277091133861465     
   4.87458391064066     
   8.03691939018554     
 -0.263892034968925     
  -8.58902991652847     
   8.94349300497642     
  -10.2792515621341     
   7.36196540084117     
   5.70123566523022     
   8.31064345437451     
   5.03892557144613     
   6.75741247424632     
  -9.53645945678807     
  -10.2806438663323     
  -9.07233950040196     
  -6.94306865016236     
  -9.44406198707443     
  -6.09279644367743     
 -0.274494850621860     
   5.16466205070728     
 -0.269703154684275     
  -6.53524101175644     
   1.56138124278195     
  0.750810968479960     
 -0.270089242861996     
  0.389376462192602     
   9.73020611056799     
 -0.276249981375792     
  0.392780311453638     
   1.23735959598040     
 -0.270426872083127     
  -3.64422524817349     
   4.76087938808811     
 -0.265738026082520     
   9.33924030948896     
  -5.32084259980916     
 -0.262159999894112     
   8.97062600048435     
   8.98545868195518     
 -0.272656438658706     
  -9.98262437378275     
   1.19659961636380     
 -0.257232811902016     
   1.64152705497976     
  -9.94829854912298     
 -0.263799185899984     
  -9.96405752043690     
  -4.97150525168890     
  -3.51322243138801     
  -4.15539109680880     
  -9.80647445468489     
  -8.31186020904694     
   3.68987418645580     
  -3.82036698948122     
  -7.06625066226044     
  -5.50145584480933     
   9.20101330194612     
  -2.20750658337493     
  -9.99628163499514     
  -5.30775681514961     
 -0.301189743853531     
   6.57572802436565     
   6.61737138599945     
 -0.308645870181496     
  -9.56392922283320     
   4.89644354330901     
 -0.303657937524249     
   8.97893187912748     
   1.74742040305159     
  -6.83105953396478     
  0.593540042672128     
  -5.18922994764134     
   5.24859956113732     
  -9.50387406145528     
  -9.96412801743279     
   4.66481219520015     
   7.89648732905954     
   5.81963180670622     
  -9.98659187176897     
   7.85773305667798     
  -9.27428899179084     
 -0.298065647693843     
   6.33468357349559     
   7.79504341963674     
  -9.84341216140465     
  0.785716492706042     
  -8.72264812035162     
  -10.2813400184314     
  2.295931607400910E-002
   1.06847548235624     
 -0.304889861876921     
  -10.2685917332494     
  -1.26285925526586     
 -0.296417234463707     
   3.62782321941993     
  -4.02383400708733     
  -5.85063396613849     
   5.07327010396030     
  -3.71344265954290     
   9.72346213720835     
  -4.07756241748286     
   7.36846669416362     
 -8.400018016511127E-002
  -10.2789034860845     
  -4.10265750218010     
 -0.255952232230634     
 -0.249930779646876     
   2.55873340273520     
 -0.249810904330168     
  -9.63950587497033     
   6.72393899890752     
 -0.255745553944914     
   9.73185947178393     
   7.28407213515152     
 -0.251099263826844     
 -0.508119614106625     
  -9.91090191813489     
 -0.244090263772489     
   7.50357747300764     
  -8.04957725915957     
 -0.241462926644772     
   7.11375823595758     
   9.38526540413011     
 -0.243371414863418     
  -6.77355193510132     
  -5.84132957075682     
 -0.231699681964759     
  -7.16337117215138     
   9.72189579499831     
 -0.252987171854909     
   9.72154771894876     
   9.38274391692663     
 -0.257836747169057     
   1.28754785993004     
  -7.94300964625150     
   5.46543613403737     
  -10.2675475051007     
  -8.33282888330156     
   6.22755214894939     
 -0.848978164299201     
  -10.2671994290511     
   5.09347686632128     
  -1.56108386524826     
  -3.65159930929179     
  -7.55319040920144     
  -1.21073785353871     
  -5.83819118987542     
   5.18797701570151     
   1.23518914501788     
  -5.46732866027523     
  -2.26722599304793     
   5.10029419613491     
   6.11192178113883     
 -0.263935611264222     
  -6.46240857952293     
   3.01953008499493     
 -0.255842683724977     
  -10.0323920888850     
 -0.249826707997394     
 -0.249696783696570     
   4.23534396649122     
   9.03860489610912     
 -0.255627980951154     
   4.14970720462958     
   6.71008832615933     
   3.23296291458212     
  -10.2651109727538     
  -8.82921573325970     
 -0.250974174557182     
  -8.43939649620964     
  -5.95255536772972     
 -0.243971881923753     
  -5.64051882958678     
  -7.65975802210951     
 -0.241353240445318     
  -4.41850191489035     
  -10.2809919423819     
 -0.243241402196326     
   6.11439179577465     
   9.37145840183296     
 -0.231584331765065     
  -8.63076554230773     
   9.05013497636194     
 -0.252846707683863     
   6.01878322453467     
  -8.96529744404035     
 -0.257709590298580     
   4.82040125673312     
   5.69549381920295     
   3.46639598712027     
  -9.11246735740168     
   8.98181820639619     
   8.70146173821522     
   9.17229283180708     
   9.05623322599548     
  -9.21903497030975     
   9.36979479807197     
   8.28321594710776     
   3.76443595761398     
  -9.69509763132567     
  -10.2647628967042     
   1.27684679478010     
   9.46573785063961     
  -9.85430519472150     
 -0.263798386940012     
   9.47117648231996     
   8.89483168032683     
   7.00719062304950     
  -8.19736497463131     
   4.79590290521058     
  -9.54078622283199     
  -6.25320897181733     
   5.50484557768732     
 -0.322685873664157     
   5.04013706692512     
  0.877661565566840     
 -0.304928900758305     
  -6.10048107390928     
   5.55448128775735     
   5.94430052480741     
   7.08209537797985     
   5.63714273459776     
   9.41750858386713     
   9.73325177598215     
  -3.56390528468962     
  -1.14528120271052     
   3.24224156915629     
  0.213325860475285     
  -5.69147180674638     
   3.58745469115984     
  -3.66985121617369     
  -5.26197153010582     
 -0.860381613962627     
   2.62282587853758     
 -0.324979355107417     
   5.29291874864649     
  -9.23133843612729     
  -4.39832750282812     
  -1.88888457933509     
  -6.60992386922632     
 -0.243851735401425     
   9.13203663968522     
  -8.94328635464299     
 -0.244000113729626     
   4.84972136828357     
  -7.26993878505946     
 -0.314555004756536     
   4.93988740308421     
  0.330111009559525     
 -0.252830891384135     
  -3.04544729457945     
   8.83456573541049     
 -0.253001687465235     
  -6.88011954800940     
  -9.50228659445174     
   2.53792168717818     
   3.20965188488426     
  -5.63725164149937     
   5.21859587056770     
   3.41319201275886     
  -10.2799477142332     
   9.34833359818345     
  -3.95937459906320     
  -6.14939480712457     
  -3.24987779544639     
   1.85970049159570     
  -5.44474173799034     
 -0.672766891520828     
  -8.85845122820211     
  -9.82905909281526     
 -0.321333232053043     
   8.42522292851086     
  -7.78931373401165     
  -5.60369687242235     
   6.84396831472900     
   8.08826051351564     
 -0.310799022364180     
  -5.80569766905970     
  -4.46087694044958     
   2.58511670147572     
  -4.30096460176537     
   4.82672471242590     
 -0.326009104830007     
 -0.808711227723174     
   2.75942838668543     
   4.77067072231655     
 -0.181255302936685     
  -7.38273273649221     
   2.87653311620001     
  -7.12987247970096     
  -5.23694322013873     
 -0.230450620707874     
  -4.99948069287201     
  -1.24782918629357     
 -0.230586836041918     
  -10.2658071248529     
  1.887271574884343E-002
  -5.51787623043282     
   4.99031893605270     
   4.10997912100199     
 -0.318821887562706     
   2.32857426683488     
  -10.2661552009025     
 -0.333608001824087     
  -7.04944394802941     
   3.72005082022746     
  4.474471692690427E-002
  -5.47226478976168     
   5.22732846679945     
 -0.295581807648257     
   3.39262034416462     
  -3.38729629868524     
   1.77756044934801     
  -3.69831511753133     
   9.71841503450276     
   2.68949992450617     
   2.10067657369407     
  -5.78921037737368     
   4.46715717929919     
  -5.99391346100121     
   4.64794080934465     
 -0.340293306124816     
   4.29803519273738     
   2.95898173509997     
 -0.227243199666705     
  0.955749617059904     
  0.249277943102755     
 -0.227082255947929     
  -9.76994046890829     
   1.44973978542549     
   1.27276602831111     
   1.06099166896229     
   2.97648888179403     
   9.04094766076453     
   6.33411976185746     
  0.634677357458678     
   4.23306245812285     
  -3.47652169519475     
   4.76579737181271     
 -0.220275468945450     
   1.22272334046554     
   1.67822175812136     
 -0.220396548119168     
  -10.2665032769520     
   1.27619885811462     
 -0.336863267494109     
  -10.2778592579359     
  -7.41265696989362     
 -0.331967880036848     
   2.58033861599852     
  -7.73886643745897     
 -0.321981820068435     
  -8.75528705296005     
  -3.73444943428145     
   8.56646757124975     
   7.02409569822019     
  -2.63135944645682     
 -0.342330103682038     
   4.65407163971618     
  -8.03443068021210     
  -8.96673877189351     
  -7.72354820520595     
   3.13581139907528     
 -0.354225779883215     
  -7.36957798755287     
  -10.2729426838040     
  -9.02813784801518     
  -8.94020592558172     
  -7.43894036107154     
   4.62758744406138     
   2.57784051565423     
  -9.65267676591719     
 -0.327063435546508     
  -9.59797089925201     
   3.24366451939451     
  -7.33530022922481     
  -10.2785554100350     
  -8.37173289060819     
 -0.218989943974591     
 -0.207423819555656     
  -9.85754371134353     
  -9.01980446451597     
  -8.41427967096894     
   9.73220754783349     
 -0.207192796632264     
  -8.65987401052706     
  -8.55115953633997     
 -0.192838459982083     
  -8.91415718448134     
  -9.27599442708700     
  -9.02582982605772     
  -6.56695901027591     
  -9.34977327720633     
 -0.218851522625393     
  -5.21594457126857     
 -0.207297066882829     
  -9.33032351678103     
  -9.04633731082721     
  -9.22436363766353     
 -0.207042954057195     
  -8.91365188233222     
  -8.71504278372131     
 -0.192706204728397     
  -8.99489193696974     
  -8.34520004425299     
  -5.32563499818495     
  -8.88696648660101     
  -9.39778376673978     
 -0.310831764181808     
  -6.28635959424659     
  -1.20439825844839     
 -0.302006194267209     
 -0.769250753670044     
  -2.27347378188090     
  -1.48522859900818     
  -9.21823721854783     
 -0.873015123996049     
 -0.325865445311013     
  -4.59033152927722     
  -9.58384943159409     
 -0.315858599393766     
  -5.85191270020809     
  -8.65037855046134     
 -0.315548000128237     
  -8.77154665210344     
  -5.00802276645151     
  -5.73112983225278     
   4.86411930031510     
  -9.61209130116766     
  0.983522535048662     
   5.56608645553889     
  -8.65596940809538     
  -10.2735953263872     
  -8.99327161820477     
  -5.04459001317668     
   9.73359985203171     
  -9.81101986455773     
  -9.17001980060945     
  -4.65430403521711     
  -8.82201764881465     
 -0.913702570162066     
 -0.280783536936688     
   4.83462258522144     
  -3.31484357234927     
  -9.55310112561916     
   8.17664833419969     
  -9.29122622186888     
  -9.57026956851954     
  -4.04559180397006     
  -3.50588244032526     
 -0.283490125596895     
  -8.86014973838799     
   9.14868716823278     
  -7.89699570483451     
   1.20754533246239     
   9.36585047916493     
 -0.251122704168628     
   5.38879739786660     
  -8.74060876263416     
 -0.191840221599570     
  -8.01519595005406     
  -9.54488580894815     
 -0.176814995994735     
  -9.47366708403963     
   1.43338077468665     
 -0.198642713224329     
  -7.76816279019824     
  -9.13750246763408     
 -0.191686660411083     
  -3.82259758458133     
  -4.96501135855026     
 -0.176677555700711     
  -3.48012991325138     
  -5.33927702325330     
 -0.198464973494251     
  -8.98342963834587     
 -2.372542725392284E-002
  -9.60035729469085     
  -7.64416271883053     
  -10.2751181590813     
  -8.55458432098492     
  -8.68250225440652     
  -9.61185386176662     
 -0.325943668001418     
  -7.44643663262103     
  -4.25423456227281     
  -10.0092476945483     
  -8.62893612066825     
  -4.21227285108936     
  -8.51725486034715     
  -7.29277396249156     
  -8.88321929367981     
  -4.92844411182246     
  -8.70903510071769     
  -8.79199607540102     
  -4.57166420003279     
  -3.60279298198013     
  -5.21396377953072     
 -0.167806363154405     
  -5.08115726019147     
 -0.159534898641314     
 -0.157028029919593     
  -8.60294012697354     
  -8.70967086369652     
 -0.167354725940854     
  -8.37465294707989     
  -8.52271270899584     
 -0.156191398157665     
  -8.02179034063850     
  -9.24917510921044     
 -0.165931560500712     
  -8.04414444547119     
  0.358154934123685     
 -0.146593711310880     
  0.609563936662700     
  -8.92044705366350     
 -0.141569242832467     
   2.93548621615036     
  -6.30339950842197     
 -0.142818418819439     
  -5.32008769068747     
   1.98317249041352     
 -0.181358914453801     
  -8.62943656178392     
  -8.35723950976366     
 -0.181039084699226     
  -4.12147803986639     
   9.73394792808126     
  -9.00578374318206     
  -8.26296543679972     
  -8.72135612058992     
  -3.31599372074174     
  -8.59799822663177     
   4.35844575223945     
   9.03095051267000     
   3.24302495344330     
   4.01975179405598     
  -8.57631233977301     
   9.22347286915995     
  -3.99893896850468     
 -0.193006916316798     
  -8.96395404112836     
  -4.70300418981217     
 -0.135469996157937     
   2.35800074639872     
  -4.45025596916711     
 -0.123053612127494     
   4.72173043141328     
   1.45828211111962     
   3.49135356457938     
  -9.37212738204254     
  -6.27604213978236     
 -0.125876956157421     
  -7.66398706624821     
  -8.29635461158506     
 -0.114577471406769     
  -7.07534191767382     
   2.18303728653571     
 -0.118374335936381     
  -8.54955320005386     
  -8.31866719794252     
   1.80820903053606     
  -8.23204241160809     
  -4.73957143653640     
 -0.104740046359010     
 -0.412981504819873     
  -8.29216695953894     
 -0.104107113622834     
   3.71498659080665     
  -8.33488540492748     
 -0.102910176743961     
  -8.40194771942695     
   4.00703539717162     
  -3.72934023947056     
 -0.612141151762231     
   3.86622247537980     
 -9.773755378015518E-002
  -8.11286754493278     
  -8.26559678078310     
 -8.486745827814041E-002
   4.36517706232361     
   3.98359800267086     
 -9.412852091916377E-002
  -5.20815693168839     
   3.31312043950342     
  -3.04401602216331     
  -2.39782581727904     
  -4.35572961975027     
  -3.20826063495393     
   3.01647445382195     
   3.68798935102867     
   1.63324557077186     
  -7.98051845018766     
  -8.48632558789345     
 -7.818343648674933E-002
  -3.00151957598381     
  -4.34984976089226     
 -0.167963929432619     
 -0.159677044269126     
  -8.94772255692486     
 -0.157189847512563     
  -1.23359031255491     
  -10.2782073339854     
 -0.167533159351129     
  -2.21027736643764     
  -1.94894443080565     
 -0.156375003681043     
  -2.26679565918342     
   1.43848088620133     
 -0.166138986328379     
  -1.27689678519282     
  -4.39480056482490     
 -0.146764980554674     
  -2.91197252113584     
 -0.976423929850322     
 -0.141715544129523     
  -2.58940170794891     
 -0.627100425953826     
 -0.143015883570393     
  -1.57738615456142     
 -0.932167226085815     
 -0.181524575091524     
  -3.32368063674381     
  -1.83603711478697     
 -0.181230186369295     
  -3.91495442004941     
  -1.96631350707215     
   1.64379069263090     
  -2.01067797583456     
  -1.62161318986676     
  -1.32113907737852     
   1.60834423452550     
  -2.35505519855376     
  -9.50889971494720     
  -1.71006678954415     
  -1.92210448267594     
 -0.622261070296804     
  -2.95750509110752     
  -2.89811672845889     
 -0.193230354457788     
  -4.14269056944959     
  -2.31118339541465     
 -0.135637438865405     
  -2.13609241343373     
  -1.15223295248656     
 -0.123203495657514     
   4.69529504193134     
  -8.15128039517350     
  -2.61148639854398     
  -1.46935394826262     
  -1.66584576199622     
 -0.126049273463582     
  -8.27332669476611     
  -1.50146155370026     
 -0.114743828337508     
  -7.95909231825951     
  -8.34371504920209     
 -0.118563858223433     
  -7.90151963238297     
  -7.73104938117816     
  -8.98340211902197     
  -4.42887060841570     
  -7.88697115352295     
 -0.104916527040344     
  -8.21211617070477     
  -8.00868699602412     
 -0.104260046866637     
  -8.23895666168624     
 -0.287006090871977     
 -0.103118415675599     
  -2.69977255494102     
   4.45709704206554     
  -5.12254176607783     
  -6.71358614498371     
  -7.95491382897554     
 -9.790457525432171E-002
   4.40077076718527     
 -0.631715026886756     
 -8.502290448208968E-002
  -5.30825146793696     
  -7.99943623579815     
 -9.431172000785715E-002
  -7.95192483835332     
  -2.09583443467842     
  -5.15429175095097     
  -8.08279626306627     
   2.34820645454861     
  -9.13119728016990     
  -7.49872319294536     
  -8.67033457405559     
  -7.68961511262520     
 -0.436438358812057     
  -1.10251041214574     
 -7.838391411379633E-002
  -7.93191603596702     
   1.99343801851722     
  0.705165079822091     
  0.707362776554539     
  0.689466528784252     
  0.683158284683102     
   3.51205112118237     
 -0.811303720108559     
  0.730530835450601     
  -7.38622191525667     
  -7.64410171934813     
  0.705247480384865     
  0.689532543042010     
  0.707424366767414     
  0.683251854460573     
   3.83842898789198     
  -7.02244214532715     
  0.730582459601784     
  -7.35976843240640     
   3.73587613419674     
  -7.85580658441026     
  -1.31910747335702     
   4.67399675273530     
  -8.61149554959438     
  -5.39322218450913     
  -4.49769586376357     
   4.71018426495188     
  0.670678611496527     
   3.61198222745143     
  -8.06649855030254     
  -7.78529589819448     
  0.670608152492115     
  0.744666237129114     
 -0.952574837646328     
 -0.828808635436460     
  -6.66241725411997     
  -3.90183167618949     
  -8.31687418163135     
  -2.65650271023818     
  -7.09646577527392     
 -6.541770203115095E-002
  -8.00789783393200     
 -6.557516107241772E-002
   1.83311037001325     
   4.59095051935927     
  -8.46532415419411     
  0.529846755644216     
  -7.64272199421450     
  -1.96111215321603     
  -4.93672313197295     
 -0.303093062912089     
  -10.0095630577646     
  -9.79186390412110     
 -0.361723517367696     
  -9.34123291230853     
  -7.69712846982246     
  -3.30221390994261     
  -9.95235402672213     
  -9.64803190692778     
 -0.342653617942314     
  -9.42713270681442     
  -6.54403705513373     
  -1.34459088933282     
  -1.79540571025343     
   3.78255840954722     
   4.42896515589819     
  0.375783757896844     
 -0.359015418064006     
 -0.124840313750720     
   2.38290208235242     
   2.71836329531740     
 -0.127489234858915     
  -7.84937328400641     
  -3.34660040884964     
 -5.539810077655227E-002
  -9.07562667820117     
 -4.575083464057225E-002
 -5.558759881465025E-002
 -4.590986150274712E-002
   9.20869388851724     
 -0.308387984976378     
   3.67674013507587     
  -9.57652574325805     
 -3.641769951041189E-002
   6.42069602671920     
 -2.595252445941166E-002
 -3.661093775634797E-002
 -2.611268243863975E-002
   4.10884545367899     
  -5.08471952668386     
  -8.69268867888940     
   5.83773291189933     
  -3.25749998136073     
  -9.37218347584418     
  -7.04891405269469     
 -1.634828499894927E-002
  -5.75897772783851     
 -6.031890880569139E-003
 -1.654248129975708E-002
 -6.192794543270459E-003
  -7.62183002473878     
  0.663422261170667     
  0.650856472398287     
  -4.08422309079886     
  0.663318540190350     
 -0.837885238424498     
  0.650781446848629     
  0.698526675053968     
   3.95782727034072     
  -1.87430443544129     
  0.698400906435552     
  -7.61754420968183     
  -7.87792654660794     
  3.815060397695949E-003
  -7.56408249339269     
  1.398992729605891E-002
  3.620289261409322E-003
  1.382864153987395E-002
  -6.26096245462157     
  2.406125557796933E-002
  -4.58080173742727     
  3.411265425262069E-002
  2.386626516110170E-002
  3.395133007789505E-002
   4.52724985260652     
  4.437510782931848E-002
   2.20793862457495     
  5.429359612285972E-002
  4.418022709095432E-002
  5.413254198039323E-002
  -7.67059562384020     
  -4.77613868351768     
  -8.85228140404753     
  -7.59698898442515     
  -1.48974689423971     
   9.72650780259657     
   4.79362472769209     
 -0.164591847192873     
  -1.43672633418968     
  -2.47944814142526     
 -0.163697378757024     
  -5.11772450623136     
 -1.705721803421232E-002
  6.474513891689795E-002
  -7.68556605870254     
  7.455408224181247E-002
  6.455067083669233E-002
  7.439358700794792E-002
  -7.27675794946165     
  -2.43871060759140     
  -7.54596096610647     
   9.71980733870098     
  -6.63797091245322     
   4.26178894199977     
   3.04121672779321     
 -8.283970690605227E-002
  -7.92829871049741     
   2.55879183163812     
 -9.025676908457494E-002
  -4.03642215598784     
  -6.99595184569020     
  8.516641731993069E-002
  -4.84927315397185     
  9.486073865167630E-002
  8.497264352835746E-002
  9.470107269088818E-002
  -4.81270592931636     
  0.105635345356387     
  -6.68513432703409     
  0.115226646528652     
  0.105442530974415     
  0.115068062892349     
  -6.63110028866239     
  0.126143504624610     
  -6.65661153078921     
  0.135637110210355     
  0.125951900343281     
  0.135479858759046     
  -6.21062718445401     
   3.09863486912953     
  -3.77127176918221     
  -8.20715314625730     
  0.676920022730085     
   3.36988226677909     
  -7.98136498783067     
  -9.92643049555284     
  -4.88584027815070     
  -3.46868665868910     
  0.658272207102276     
   3.33648006904931     
  -3.16610178432651     
  0.678085558166592     
  -3.51078477821942     
  -3.12540695084324     
  0.644049946171376     
  -7.35089200229861     
  -3.85630717958252     
   4.09336985246890     
  -7.53102693014698     
  -1.19636973485202     
  0.676795384992033     
   3.73397398525133     
   3.49819898242317     
  -4.50768721669271     
  -3.95157190725439     
  -7.04805614764299     
  0.658128151688211     
  -7.23881435494542     
   3.86462062141760     
  0.677935003723787     
  -6.94730517603201     
  -7.24584694944700     
  0.643937978689021     
  -7.58596902392324     
   3.58132495473239     
  -6.88064894932307     
   4.68509219105636     
  0.630482653763715     
   2.87951885701248     
  0.630562249764837     
   3.02962220593221     
  0.146498568065853     
  0.155924406376686     
  -2.21760989598543     
  0.146688725313891     
  -3.81517901648513     
  0.156080107442665     
  0.167071473789639     
  0.176411594851564     
   3.13127186361272     
  0.167259962148220     
  -6.86354496904362     
  0.176565516241428     
  0.187862108450260     
  -4.31150342062436     
  0.197088476906100     
  0.187675492622012     
  0.196936515766483     
  -6.02320852743745     