 TITLE="euler solver on unstructured grid" 
 VARIABLES= "X" "Y"  "P" "Rou" "U"  "V"  "nuT"
 ZONE NODES=       11173  ELEMENTS=       18178  ZONETYPE=FEQUADRILATERAL
 DATAPACKING=BLOCK
 VARLOCATION=([3-7]=CELLCENTERED)
 -0.306885346157816     
 -0.301893320852046     
 -0.302451211685001     
 -0.306353453042014     
  -7.44542547934787     
  -9.10026294348583     
 -0.300549095585333     
   9.48046181625615     
   9.43502493217537     
 -0.311848198315636     
   8.73643847978852     
  -9.91324427972159     
 -0.309326545456740     
   8.81541306426318     
   8.42606607089341     
   5.13128728505532     
  -9.64310632483408     
  -10.4782139131784     
 -0.317030778031388     
  -9.69140341766065     
   8.94426757370047     
 -0.313316173323582     
   9.43729838256779     
  -9.57341137172972     
 -0.317962825407009     
  -8.90305458244026     
   8.89181549764077     
 -0.311334492776606     
   9.00998936276732     
  -9.35486059323484     
 -0.307202106773333     
   5.84251019705661     
  -6.44185156950919     
   8.71089003401943     
  -6.36219976633705     
  -7.08829730834794     
 -0.302253225772558     
  -5.88611652475621     
   8.85180708847603     
 -0.311645608251260     
   5.52782370376856     
  -7.83391920000028     
   6.56819498336442     
   5.27145868076025     
   6.34214933185405     
 -0.307265747270685     
   5.54017917518165     
  -7.32337838942087     
 -0.314253168962641     
   5.93138067438264     
  -6.83559119862950     
   6.43803518930982     
   6.48506629448398     
   8.88900465956553     
 -0.306928231161648     
   9.33960601528519     
  -6.46902840302428     
 -0.311881313602856     
   7.74696980604207     
  -9.48914729979276     
 -0.301272347359341     
  -5.92148477525948     
  -6.10840199960192     
  -9.08710515480370     
   7.25889752314330     
  -8.17921154632836     
   5.88446691347735     
   8.58172538894418     
  -5.67646293140479     
  -7.31529772817456     
  -7.30596894786401     
  -9.41339485489650     
 -0.286643356570964     
 -0.285763539339508     
 -0.281250794813814     
 -0.291946864816874     
  -7.37632994854821     
  -6.68198215363453     
 -0.290984693506232     
  -7.85655532160539     
  -6.82451887837001     
 -0.287374442902421     
  -8.80312987083750     
  -6.53129868486748     
 -0.292874051216903     
  -8.33009973039826     
  -8.97009194414767     
 -0.296634023793152     
   9.02766566229770     
  -9.59356343631399     
   8.20381482565845     
   6.17957953394389     
   6.05173530281278     
 -0.300711683591770     
   8.12799658903842     
   5.67038335760954     
 -0.287995954270271     
  -9.46356944811023     
  -8.40851844117322     
 -0.283084808048657     
  -7.92832982805239     
   7.97616267257418     
 -0.281150538433509     
  -8.48056900907456     
   7.84705029560022     
 -0.276384983680610     
   9.55796441671109     
   8.32658313473675     
   8.64675979335669     
   7.40401666867177     
   6.30871455851750     
   4.78706121091561     
  -10.1089567430625     
  -7.44838975591414     
  -6.23642567689996     
  -8.44956093703702     
  -7.34018948690843     
 -0.289918774359349     
  -8.00035756833674     
   7.07947647367650     
 -0.283991071555794     
 -0.278700804749821     
 -0.283453121233935     
 -0.289489310447683     
  -8.02077533844002     
  -9.10509016411816     
 -0.288170469616162     
  -7.65864300013403     
   7.71792908033298     
 -0.284349622284601     
  -7.52279789504183     
   8.05569075815185     
 -0.289738482502924     
   8.32674559410498     
   7.14578310258301     
 -0.285477319338719     
  -7.81498335824209     
   5.44772413930875     
 -0.295432260309182     
   7.47600914701665     
   7.27490412338317     
  -9.21215800207717     
   5.19846941198270     
  -8.51149761425996     
 -0.296773213651102     
   7.58310823811346     
   4.74393720133773     
 -0.280257285383249     
  -8.58603938697320     
   7.90151633409472     
   5.91761815250519     
  -8.28989077512240     
   9.07730522847462     
 -0.273615072307653     
   7.53605522566768     
   8.48592585139766     
 -0.278025000429886     
   7.73041331759130     
   7.54015190980452     
   6.70273374711598     
   5.47714224752533     
   6.57366259981626     
  -9.02599984274129     
  -6.96812157902921     
  -6.89625019001101     
 -0.287872519591287     
  -9.89954647749063     
  -6.02209567102081     
 -0.294623780702959     
   7.05052135457710     
 -0.291907927395480     
  -8.07984819169890     
  -6.61819828713540     
  -6.22324052838704     
 -0.295460427436563     
  -5.71171656656600     
  -8.68827760579122     
 -0.296385855042087     
 -0.293661783354400     
   7.04703622745934     
  -8.55260244275499     
  -8.00618460353116     
   8.15155071622462     
 -0.296892433437864     
   5.56579715356212     
   8.18868189024938     
 -0.305972117125335     
 -0.298386565290291     
  -8.07328628694018     
   8.99046062323703     
   8.08597794259365     
   4.76593099353549     
 -0.303470696842450     
  -6.28209925807409     
   6.02124662928328     
  -10.4425259978111     
  -6.22213950115745     
   5.38059874752927     
   7.01644905961212     
   6.58495810028773     
  -7.52196765686890     
  -8.82371894300158     
   7.11754720855557     
 -0.299471389494465     
 -0.303891048274396     
  -5.85759597581911     
  -6.90417317420070     
 -0.306407055251346     
   5.98193655107297     
  -9.25811014774638     
  -8.88777140873755     
  -9.83128322660245     
   6.79957497692933     
  -8.86790916696354     
  -5.29577761914160     
  -9.61650379774588     
 -0.300208875375833     
  -9.63113298415765     
  -7.50151021839876     
 -0.306969469677268     
  -9.76081743696919     
  -1.58512314507892     
   6.27409248870936     
   6.34223696342790     
   4.83605561979492     
   6.62584642337293     
   4.31299296426090     
  -1.01188939782533     
   5.39329199640695     
  -1.41008652554483     
  -6.96191090874959     
  -8.39025100232547     
  -7.01537848152674     
   9.47298629793506     
 -0.272843659750409     
 -0.268133231146015     
   6.13057919332406     
   7.45517088309754     
   9.41018917993656     
   5.67773577199125     
 -0.268356845099040     
  -10.5614857157020     
   6.96098402773573     
 -0.274419029252251     
  -7.52066032033396     
  -9.91847404826319     
 -0.268523881984969     
  -5.37905963878198     
  -8.10554417315521     
 -0.263932467614214     
  -7.90768299341743     
   5.33161961353162     
 -0.260115255717129     
   8.32402619389069     
  -10.4306300260220     
 -0.255479406308091     
   8.45290371140927     
   6.94095798088358     
 -0.274881496187537     
   5.04125189023882     
   7.86392309743857     
 -0.262136210423675     
  -8.76160919433700     
   9.11005278756719     
  -10.0544199227344     
   7.19217665016948     
   5.99734598348024     
   8.54266552802522     
   4.78675594941743     
   7.03508104592626     
  -9.59853867150577     
  -10.0068360355780     
  -9.23097743577745     
  -7.19320734258079     
  -9.49241032835712     
  -6.29323830936989     
 -0.275982369323147     
   5.47634996158878     
 -0.271109103201229     
  -6.27009893643947     
   1.25861282639006     
   1.05342716676300     
 -0.271667085335295     
  0.703286514784998     
   9.61276396579215     
 -0.277926410157250     
  0.695729162973411     
  0.943480773899241     
 -0.272185262238719     
  -3.33671477341246     
   4.95906153762448     
 -0.267397609172863     
   9.30120974482870     
  -5.63245783329657     
 -0.264076611164438     
   8.92054157550812     
   9.04802187170604     
 -0.274607073906884     
  -9.99164270804167     
   1.02382785178748     
 -0.258845253795624     
   1.47563031929322     
  -10.0010581290858     
 -0.265309453472644     
  -10.0320330755750     
  -5.27307479010400     
  -3.65659704351420     
  -3.85356587255202     
  -9.83052746122783     
  -8.12459244971790     
   3.98829987002711     
  -3.52784019887057     
  -6.90363159218930     
  -5.79601537063379     
   9.08634349770274     
  -2.03209190159779     
  -9.95939566086044     
  -5.41355449559637     
 -0.300163366756013     
   6.38112176883111     
   6.30020079822803     
 -0.307653493017556     
  -9.64001944136144     
   4.69551016791430     
 -0.302348091622830     
   9.13357018705712     
   2.05096708728325     
  -7.06011498283909     
  0.301770241430787     
  -5.27709775648408     
   5.01239517857455     
  -9.44271682103860     
  -10.0479218133778     
   4.96414856793164     
   8.18807314947555     
   6.00366448306694     
  -9.91970709493539     
   8.13172895573395     
  -9.06305113137380     
 -0.299137446654894     
   6.59972756388911     
   7.58920139498456     
  -9.55329004755293     
   1.06927814864122     
  -8.40449785855701     
  -9.98304409199981     
  0.326435737617102     
   1.36067286245110     
 -0.306116223608745     
  -10.4187340542329     
  -1.44582674079383     
 -0.295043147147040     
   3.73800828392917     
  -3.93919147738722     
  -5.59390235342186     
   5.07393608574192     
  -4.01868818201828     
   9.84324841577131     
  -4.37388299868261     
   7.54357934577331     
  8.675947467590374E-002
  -10.0663158945235     
  -4.41483960855226     
 -0.253906393611060     
 -0.247984069716372     
   2.85351537178190     
 -0.247687509187842     
  -9.79187887572237     
   7.03490131248574     
 -0.253558677234138     
   9.55625810045870     
   7.57798442107002     
 -0.248782353372417     
 -0.810856565487844     
  -9.88441933891987     
 -0.241894584661588     
   7.81417698793421     
  -8.35992269736624     
 -0.239421408758812     
   7.42453915020997     
   9.22290378312327     
 -0.240971508052412     
  -6.45630866993582     
  -5.65745785285430     
 -0.229563089195066     
  -6.84594650766006     
   9.89678028837907     
 -0.250398969934548     
   9.90867626016816     
   9.45171751327964     
 -0.255480336627092     
   1.12761014181077     
  -7.62522218310853     
   5.63024389779673     
  -10.4544219696002     
  -8.01486002083278     
   5.91056296050379     
  -1.14111456678927     
  -10.4663179413893     
   5.27559194594012     
  -1.26164412080347     
  -3.39180291039038     
  -7.23558434538429     
  -1.38286339245546     
  -5.99262747831798     
   5.22567456812491     
   1.53761997396924     
  -5.29801710847252     
  -2.45007445733421     
   4.95151540047005     
   6.39040697205376     
 -0.261399296826165     
  -6.72503233513402     
   3.11857516109741     
 -0.257650362592826     
  -10.1415764614942     
 -0.251540859699067     
 -0.251587736852358     
   4.13519394691678     
   9.14078681318901     
 -0.257576893996578     
   4.06280370202294     
   6.93652734590790     
   3.13806214373383     
  -10.5376937721238     
  -9.13919837281472     
 -0.253057449073258     
  -8.74956053509048     
  -5.94298724767923     
 -0.245940445141508     
  -5.68580844191572     
  -7.97028485964200     
 -0.243170083613148     
  -4.32298335817844     
  -9.99494006378890     
 -0.245414867547904     
   6.00996248849326     
   9.31791172286516     
 -0.233505338951064     
  -8.52752364487898     
   8.96917967304474     
 -0.255199523774063     
   5.92485649705561     
  -8.85642389649719     
 -0.259826095394230     
   4.84728375221771     
   5.59712753451095     
   3.35860050977113     
  -8.79413569628125     
   9.11540326571684     
   8.73331396211620     
   9.29380144663062     
   9.08790971083207     
  -9.52883621053895     
   9.47941783182461     
   8.59345266338269     
   3.66768025645551     
  -9.79301847471683     
  -10.5495897439129     
   1.04473490975372     
   9.38206099471065     
  -9.77515427779638     
 -0.266089124499382     
   9.60366106374342     
   8.91662333312193     
   6.68983863595227     
  -8.23173821504617     
   4.55705170535127     
  -9.46771769699853     
  -6.47578375474998     
   5.55542675302975     
 -0.322916837087393     
   5.09298555454949     
  0.573980440587708     
 -0.303272821674644     
  -6.41173350874505     
   5.86598779931303     
   6.25562563703726     
   6.83185685160252     
   5.51425276179022     
   9.27372641947584     
   9.50867421330233     
  -3.47320332506776     
  -1.42956437279076     
   3.35029554915229     
  0.446912858378487     
  -5.64538526471683     
   3.76580821757052     
  -3.53726105780346     
  -5.47317032134625     
 -0.677633619997911     
   2.33333434717844     
 -0.324508310434878     
   5.13707720266289     
  -8.92393565876013     
  -4.26401104985881     
  -2.07021727358032     
  -6.53887483956384     
 -0.246347931003977     
   9.21429608719413     
  -8.84640554219056     
 -0.241276900093785     
   5.08255826225190     
  -7.58064702191776     
 -0.313492375011947     
   4.95368363804733     
  2.954801054439693E-002
 -0.255717190845131     
  -3.33637036612406     
   8.90693624512623     
 -0.249880002779343     
  -7.19100918419352     
  -9.18377353400549     
   2.23488809709203     
   3.38879399175018     
  -5.73389769096681     
   5.24181775170246     
   3.10837069197133     
  -10.0306279791562     
   9.34861990640374     
  -3.86254848081732     
  -6.19847038674247     
  -3.12045248223822     
   1.57892242233310     
  -5.20648677546906     
 -0.503307995858384     
  -8.67848655522661     
  -9.77784713984207     
 -0.321979187447891     
   8.26181115309194     
  -8.08558774608067     
  -5.79369393264710     
   7.10305497854051     
   7.92872217520855     
 -0.308862463598697     
  -5.83713900657041     
  -4.58960121629047     
   2.49770527605253     
  -4.41976548648909     
   5.07996766351878     
 -0.325048635418843     
 -0.988662446499258     
   3.02035684882175     
   5.04368644044652     
  7.819029733751232E-002
  -7.54125664933758     
   2.98551397604056     
  -6.83055124915723     
  -5.09103376681056     
 -0.232739130323754     
  -4.84575777195996     
  -1.06071144395104     
 -0.228083786260023     
  -10.5139018285456     
  0.263887136602599     
  -5.30303630945531     
   4.82047043371321     
   3.97644495969636     
 -0.317399752698353     
   2.23439930222801     
  -10.5020058567566     
 -0.333963281428243     
  -6.90338520684971     
   3.41600180397684     
  0.331774755161090     
  -5.27419136326099     
   5.21426717625201     
 -0.293260290824730     
   3.09774098666709     
  -3.14642173209135     
   2.06679177448529     
  -3.45040681645997     
   10.0157400062700     
   2.59146422437925     
   2.39235649078008     
  -5.92789781108309     
   4.24988255145101     
  -5.67703299448735     
   4.34697644839146     
 -0.339795018767209     
   4.00738379461475     
   3.20983562418160     
 -0.224306784312464     
   1.19479142396685     
  0.503999559639647     
 -0.229807254513262     
  -10.0463445304858     
   1.67602668599287     
   1.02875555406756     
   1.28734894286114     
   2.80590716775699     
   8.88866476100018     
   6.64526347476150     
  0.865679026456723     
   3.92661272120013     
  -3.64632952886834     
   4.53962639479381     
 -0.222302499510630     
   1.43710287471938     
   1.44253083738307     
 -0.218164454285668     
  -10.4901098849675     
   1.51469237205532     
 -0.337588405439548     
  -10.1020038098907     
  -7.55833342468698     
 -0.331897398706791     
   2.39242343553105     
  -7.57973245651952     
 -0.319462131861309     
  -8.59165618620018     
  -3.49819520389226     
   8.24838998684922     
   6.84057737903532     
  -2.32731421443714     
 -0.340923369901263     
   4.37021268832961     
  -8.16660049654602     
  -9.07865517924673     
  -7.86247185410688     
   3.39699019040944     
 -0.354668987731216     
  -7.21589800996348     
  -10.2700344090851     
  -8.88347317806650     
  -9.04038325556349     
  -7.27584032270693     
   4.35503502894143     
   2.37774015038134     
  -9.51085920510795     
 -0.328158992487512     
  -9.59045710056361     
   3.06289832370310     
  -7.28053571123277     
  -10.0782118663125     
  -8.50889064798747     
 -0.216453491439032     
 -0.205097977280979     
  -9.85460107260489     
  -9.15519902661205     
  -8.45885021886845     
   9.54436212866961     
 -0.204460957897326     
  -8.67921581450946     
  -8.58277015237523     
 -0.190422625792448     
  -8.94203487099626     
  -9.17323048832399     
  -9.04240496402563     
  -6.40369803962306     
  -9.23479504072115     
 -0.221184229067099     
  -5.43802970351810     
 -0.209429922044368     
  -9.35571493580511     
  -9.19347095029473     
  -9.30602761471590     
 -0.209582031433113     
  -9.00206964184786     
  -8.56404416529129     
 -0.194942628730938     
  -8.98032609517837     
  -8.47061872426081     
  -5.55834258715127     
  -8.96362363291322     
  -9.38142847061750     
 -0.312421528272196     
  -6.34597121415160     
 -0.898025337730753     
 -0.303963662452689     
  -1.04696171632522     
  -1.96978354811132     
  -1.77473842398847     
  -9.18106627928272     
 -0.575108325899345     
 -0.327623105164240     
  -4.70084961777077     
  -9.54305512582791     
 -0.317231137170690     
  -5.91520417305158     
  -8.53491957824070     
 -0.316538088900955     
  -8.77958590753883     
  -4.75554279511760     
  -5.97189674588739     
   4.85356688139691     
  -9.50370697191943     
   1.25437389977830     
   5.84332156187618     
  -8.77463695177592     
  -10.2477294623129     
  -9.11692710292942     
  -4.80381756254429     
   9.49677824151324     
  -9.93236803389719     
  -9.10019377942096     
  -4.39677501324278     
  -8.75440233603861     
 -0.666368410713707     
 -0.278024893310805     
   4.67847345550616     
  -3.16810792122929     
  -9.58706764400993     
   7.85875214912499     
  -9.21090245126090     
  -9.48541245094124     
  -3.80234120686050     
  -3.38813312960175     
 -0.285846908459586     
  -8.92504522875942     
   9.16056904763662     
  -7.89073090496916     
   1.48835772205662     
   9.38909324495362     
  4.172110615740993E-002
   5.47074433164737     
  -8.71750703826587     
 -0.189050124291256     
  -8.02958257666841     
  -9.54663574501712     
 -0.174315423986465     
  -9.48736926786982     
   1.70357970499398     
 -0.195424199534306     
  -7.91966388889437     
  -9.14277505705499     
 -0.194298286491661     
  -3.98676489799259     
  -4.70063309581294     
 -0.179012632721392     
  -3.18553036114224     
  -5.07772243756502     
 -0.201498696235540     
  -8.86230850606932     
 -0.330520901805322     
  -9.50294905203975     
  -7.54509743127670     
  -10.1956845865111     
  -8.47745913985900     
  -8.81290887545849     
  -9.72229345381071     
 -0.324069738958850     
  -7.30462775547348     
  -3.97991124858799     
  -9.87380170630187     
  -8.61713694496971     
  -3.92512937434430     
  -8.51675859576730     
  -7.16126795403113     
  -8.87995600056819     
  -4.65235832838375     
  -8.85118079914110     
  -8.83125026628801     
  -4.29057629983761     
  -3.33113287689758     
  -4.92089162104844     
 -0.170499543047863     
  -4.85209233027581     
 -0.161960710021917     
 -0.159800997322339     
  -8.69811166895119     
  -8.65542815957055     
 -0.170415126002124     
  -8.35431788881147     
  -8.58262903771901     
 -0.159347959834478     
  -7.89343913175410     
  -9.24314515008434     
 -0.169502539906408     
  -7.90402146775077     
  0.636949375491772     
 -0.149537769370875     
  0.881369733320343     
  -8.97068556548856     
 -0.144076504078426     
   3.20674195571680     
  -6.45830325158107     
 -0.146224958860262     
  -5.07122887989706     
   2.26397324035299     
 -0.184188150935639     
  -8.73636502809303     
  -8.22345048052450     
 -0.184315925526743     
  -3.90163218657307     
   9.48488226972415     
  -8.87289084206950     
  -8.25393358244931     
  -8.87616540710643     
  -3.61532441331856     
  -8.55505807109468     
   4.55727172992998     
   9.02072723612041     
   3.53841218113596     
   3.74862644133815     
  -8.65972591467919     
   9.13044723065403     
  -3.74374876333404     
 -0.196846920127752     
  -8.91824721943281     
  -4.45753216114604     
 -0.138351929635441     
   2.63906812292497     
  -4.54695955171542     
 -0.125632493598700     
   4.46007931373086     
   1.70807728194116     
   3.77484619484783     
  -9.24537737672136     
  -6.41915540735270     
 -0.128849087861833     
  -7.55284544657006     
  -8.19868840455725     
 -0.117450030473878     
  -7.21602973485950     
   2.45376947002638     
 -0.121652559209480     
  -8.62120776515646     
  -8.43234680057889     
   2.07867458743690     
  -8.19186892224162     
  -4.50580692857169     
 -0.107795239178434     
 -0.168450106387244     
  -8.39409922285674     
 -0.106748449901397     
   3.45093511398196     
  -8.21286814452440     
 -0.106524783485640     
  -8.24461515251566     
   3.71256905840364     
  -3.62378743864252     
 -0.377495751776374     
   4.14994709634676     
 -0.100629637125146     
  -8.25916789601892     
  -8.35577372316653     
 -8.756194538804909E-002
   4.09929108729869     
   3.70057809091034     
 -9.730681471784604E-002
  -4.93602158137853     
   3.58462156329347     
  -2.79856170297437     
  -2.15491302458561     
  -4.10539931114569     
  -2.91936396936045     
   2.72947825544422     
   3.95972246545387     
   1.89337593463341     
  -7.87607298873973     
  -8.45468798098923     
 -8.167304421335703E-002
  -2.74431292107245     
  -4.20154218722079     
 -0.165114501465908     
 -0.157102690113477     
  -8.86622434311150     
 -0.154270661283988     
 -0.941922380717870     
  -10.0901078381016     
 -0.164316921837923     
  -1.91710207240192     
  -1.64333415078284     
 -0.153072991679621     
  -1.98877747789007     
   1.72988088421934     
 -0.162413480497113     
 -0.997126118556079     
  -4.15629333270762     
 -0.143684410327320     
  -2.63123144268155     
 -0.703855080676499     
 -0.139076458528873     
  -2.30281189887958     
 -0.362135081737818     
 -0.139476332777862     
  -1.29041401522688     
 -0.647920824441174     
 -0.178526473622792     
  -3.22007038175364     
  -1.54351742877011     
 -0.177784766376638     
  -3.79592651769294     
  -1.69549579705745     
   1.88136766079099     
  -1.75154734418489     
  -1.34631872181150     
  -1.05304601303201     
   1.88887835787359     
  -2.10042851090941     
  -9.59564179664728     
  -1.45815299196093     
  -1.63960899991006     
 -0.368191386514902     
  -2.68853618209179     
  -2.60524162825503     
 -0.189210618160937     
  -4.03514862719933     
  -2.04485265862530     
 -0.132629347668465     
  -1.91197906147872     
 -0.926347055807305     
 -0.120510020371830     
   4.57938615070290     
  -8.15355132491856     
  -2.33794567465575     
  -1.24789026116478     
  -1.40222883364856     
 -0.122959909863291     
  -8.18778771942975     
  -1.29150787291814     
 -0.111764556401417     
  -7.86674863873048     
  -8.29223901123529     
 -0.115175377619252     
  -7.97495411056054     
  -7.58459245497655     
  -8.82805324430816     
  -4.20202517458573     
  -7.81650712960964     
 -0.101763772178173     
  -8.27879157415647     
  -7.99111911930174     
 -0.101521748563515     
  -8.31737030151616     
 -5.485668661530496E-003
 -9.940793514367920E-002
  -2.44971765318932     
   4.22703954914245     
  -4.92765948658244     
  -6.86127819203214     
  -8.05184587688226     
 -9.492145137839743E-002
   4.14702884363042     
 -0.354670390508821     
 -8.224936022379234E-002
  -5.12308104916678     
  -7.88285679574967     
 -9.104573702041031E-002
  -7.90221508145863     
  -1.86005300846111     
  -4.94864186252595     
  -8.02137937410855     
   2.08686449279088     
  -9.16851770528422     
  -7.53790312332291     
  -8.54287949329774     
  -7.70615559882456     
 -0.212288978781854     
 -0.887796031939220     
 -7.482144899805754E-002
  -7.97794718827689     
   1.73797238117499     
  0.706286193468961     
  0.708116856200117     
  0.690306746173091     
  0.684486082569923     
   3.77346572577967     
 -0.586544654222871     
  0.731098851461910     
  -7.52015765741472     
  -7.74779996426327     
  0.703470042310582     
  0.688050619246299     
  0.706011927016468     
  0.681288208328007     
   3.70749880907179     
  -7.13964966828472     
  0.729334525973590     
  -7.48196386216453     
   3.59245683852005     
  -7.65877876876099     
  -1.06339822129310     
   4.42445275891890     
  -8.52069169321217     
  -5.16777841518073     
  -4.80110403713957     
   4.93201072081010     
  0.669127287263756     
   3.48415338264922     
  -7.91460380374610     
  -7.79033418805402     
  0.671535319444805     
   1.00491067351375     
 -0.692139298016222     
 -0.514331709959320     
  -6.78662676623524     
  -3.62284511175451     
  -8.20704854624817     
  -2.39471445648818     
  -7.24654615203948     
 -6.815664160766710E-002
  -8.12832857289284     
 -6.277526499402603E-002
   2.08317216741687     
   4.87494754361668     
  -8.40130824587356     
  0.774172660548315     
  -7.62792103310029     
  -1.77826868026832     
  -4.64796267292802     
 -0.300211307038501     
  -9.91838244441567     
  -9.67091593436085     
 -0.361068498759230     
  -9.20290219084126     
  -7.82431034509623     
  -3.03779639242968     
  -9.98997161066917     
  -9.51469072371383     
 -0.343912456603658     
  -9.55690957741400     
  -6.53838913597232     
  -1.10092547310424     
  -1.56678322630269     
   3.54252075604359     
   4.30489331215326     
  0.668562408693952     
 -8.848182425902218E-002
 -0.120424527488448     
   2.64356569939134     
   2.43990544213134     
 -0.131725676117103     
  -7.87661201134965     
  -3.09403377260727     
 -5.870520305764194E-002
  -9.01861730791665     
 -4.852650078987151E-002
 -5.222885020837154E-002
 -4.309154176710738E-002
   9.18593640296670     
 -0.310975040170697     
   3.40064763697844     
  -9.54847191717572     
 -3.979941674772348E-002
   6.71806585835678     
 -2.875729762333682E-002
 -3.319523721522081E-002
 -2.328368113887010E-002
   4.34000004267673     
  -4.78150795852337     
  -8.55346182929548     
   5.52092512277956     
  -2.98129086439866     
  -9.32350025495488     
  -7.17786148786713     
 -1.975619159877504E-002
  -5.60152730754233     
 -8.859048996176105E-003
 -1.311926923969421E-002
 -3.359947766141704E-003
  -7.53480887268940     
  0.661289303771459     
  0.649234056089152     
  -3.85267229223693     
  0.664834109159147     
 -0.633877523758801     
  0.651798156156741     
  0.695989609411981     
   3.83601729620101     
  -1.66899681037633     
  0.700287922779252     
  -7.70949270623974     
  -7.93815996910700     
  3.876607675295804E-004
  -7.63253780565628     
  1.114673194458996E-002
  7.044228909904152E-003
  1.665889173842964E-002
  -6.11928516904788     
  2.062057784447997E-002
  -4.40089703774619     
  3.125941924468506E-002
  2.728464019856165E-002
  3.677289204433665E-002
   4.73758154775969     
  4.092690622359203E-002
   2.45826704858859     
  5.143571938476400E-002
  4.758722016583975E-002
  5.693996346517165E-002
  -7.78603842174260     
  -4.55408169626907     
  -8.81787713094094     
  -7.52197977114669     
  -1.29300720817620     
   9.73915866416782     
   4.66627668254386     
 -0.159515817478055     
  -1.20410323462965     
  -2.25991253487040     
 -0.168116799512755     
  -4.90036709705240     
  0.255890782155166     
  6.129471608651208E-002
  -7.62522197629366     
  7.169660749992207E-002
  6.794092687567435E-002
  7.718175011968634E-002
  -7.26472363718620     
  -2.20748310771653     
  -7.59911566873438     
   9.96815611911362     
  -6.77417365750402     
   4.52366752738404     
   2.73678722142911     
 -7.800321203145716E-002
  -8.01347836393170     
   2.82979125777452     
 -9.501739297170332E-002
  -3.89544569297469     
  -7.10141985589175     
  8.171870271905192E-002
  -4.65063120904085     
  9.200839957691657E-002
  8.834118525114205E-002
  9.746520066288349E-002
  -4.60235646277878     
  0.102194979745042     
  -6.79735354195074     
  0.112383866203447     
  0.108784673150836     
  0.117803677380010     
  -6.48732960078028     
  0.122714878887494     
  -6.53469345255866     
  0.132808262434283     
  0.129263215460096     
  0.138182544379135     
  -6.08302132131642     
   2.84831941051652     
  -3.54666904120140     
  -8.13446010787961     
  0.674412901437694     
   3.10071718228732     
  -8.09005664942186     
  -9.91093861137795     
  -4.69890585618081     
  -3.25119622381926     
  0.655432246378107     
   3.05559658983533     
  -2.95572364857475     
  0.675122072885173     
  -3.30501731597547     
  -2.90333675670984     
  0.641780964490554     
  -7.23341643413297     
  -3.65522123930589     
   3.84658299687926     
  -7.52752891863141     
 -0.992005899450516     
  0.678672565432422     
   3.96489696789399     
   3.27665014433988     
  -4.30434569375783     
  -3.68446134398147     
  -6.99451732925546     
  0.660355535825851     
  -7.17214666239224     
   3.64876292505252     
  0.680267475467783     
  -6.87092908289915     
  -7.20267090681449     
  0.645607605286694     
  -7.53902593333512     
   3.37589729241178     
  -6.87248477523187     
   4.50542537953474     
  0.631589193811807     
   2.75847098754517     
  0.628868892357342     
   2.75566614042688     
  0.149774871607841     
  0.158590310192615     
  -2.01688016364832     
  0.143275989363485     
  -3.60234756307403     
  0.153269014772311     
  0.170308851552787     
  0.179036664266688     
   2.89285588659122     
  0.163867005872480     
  -6.90717265712637     
  0.173776191694959     
  0.184492499090541     
  -4.15034661116065     
  0.194324078937228     
  0.190870348503245     
  0.199517557294127     
  -5.87253578757040     