 TITLE="euler solver on unstructured grid" 
 VARIABLES= "X" "Y"  "P" "Rou" "U"  "V"  "nuT"
 ZONE NODES=       11173  ELEMENTS=       18178  ZONETYPE=FEQUADRILATERAL
 DATAPACKING=BLOCK
 VARLOCATION=([3-7]=CELLCENTERED)
 -0.307127589280011     
 -0.302215768526891     
 -0.302592127732804     
 -0.306735423374426     
  -7.61852975960134     
  -8.87509291094739     
 -0.301054447078127     
   9.20350373713018     
   9.23750100551683     
 -0.312163157390427     
   8.52849542576558     
  -9.68587509486207     
 -0.309834699402333     
   8.62879857498726     
   8.65055987888741     
   5.44196302660286     
  -9.47492893669290     
  -10.2709512252743     
 -0.317474916722710     
  -9.48205844861232     
   9.16583010431101     
 -0.314044495015551     
   9.72978112385636     
  -9.88615675805289     
 -0.318095949951559     
  -9.18147997667301     
   9.09245103311317     
 -0.311492485875168     
   9.24823426236083     
  -9.10919916254368     
 -0.307271645357306     
   6.11621545836891     
  -6.62266401497104     
   8.42392319161829     
  -6.58470597511359     
  -7.28403876887136     
 -0.302212258020276     
  -6.08958121886020     
   8.59190157105258     
 -0.311669222520423     
   5.78180875289460     
  -8.11041239052510     
   6.86601904767904     
   5.55281348784313     
   6.12665381816388     
 -0.307162335458001     
   5.30009113162834     
  -7.61534686749065     
 -0.314102609898402     
   5.70342659091505     
  -6.56196604944066     
   6.71545666192452     
   6.24651584390212     
   8.64792248301982     
 -0.306634782416294     
   9.11628421691558     
  -6.17808910654925     
 -0.311471984569078     
   7.49752696745903     
  -9.22072479082745     
 -0.301047392492339     
  -6.19530065555727     
  -5.83910677777978     
  -9.25273959388271     
   7.02263684006048     
  -8.47314877452949     
   6.18044640345988     
   8.87796263277841     
  -5.90273958237230     
  -7.05067604975418     
  -7.01838013418919     
  -9.59966684077550     
 -0.285437211981501     
 -0.284729665208528     
 -0.280093807955511     
 -0.290841551589072     
  -7.62286430585912     
  -6.95961814594314     
 -0.289698774666731     
  -8.11397077567022     
  -7.07858827945779     
 -0.285980467496803     
  -9.06356319308798     
  -6.73596303470692     
 -0.291426698186916     
  -8.59995448008695     
  -9.21459638157985     
 -0.295349211504686     
   9.34015677842618     
  -9.82802822010078     
   7.89935208579150     
   6.42059266452818     
   5.85237189005974     
 -0.299207812542793     
   8.33569724720334     
   5.90337212231914     
 -0.286282485957616     
  -9.72323433809238     
  -8.65840975724770     
 -0.281788491203581     
  -8.16733789902189     
   8.23235021200815     
 -0.279702789874363     
  -8.71206404997163     
   8.08523842201889     
 -0.275114645335081     
   9.30844814186933     
   8.57049617447604     
   8.90388175999418     
   7.65489110537246     
   6.56772800327778     
   4.99694670564594     
  -9.85679487226751     
  -7.67652618736585     
  -6.06652249105820     
  -8.17675938637356     
  -7.60719532627028     
 -0.289020267737474     
  -8.22095953073656     
   7.39105990251452     
 -0.285463082325472     
 -0.280118680516229     
 -0.284752200988343     
 -0.290865522533558     
  -7.80396582250803     
  -8.90297155224003     
 -0.289726224559798     
  -7.42832127266701     
   7.93811772565285     
 -0.286009971546853     
  -7.31106683407558     
   7.84194993818753     
 -0.291457282472056     
   8.08195229207007     
   7.36065885964966     
 -0.287375420375513     
  -7.56553852974444     
   5.66362794035560     
 -0.296966706762149     
   7.25772179718159     
   7.50777915271806     
  -9.02841773806884     
   5.39710382684206     
  -8.30025698709365     
 -0.298610881404681     
   7.38460434880340     
   5.01246372118507     
 -0.281816070812681     
  -8.39433730184580     
   7.66997574349170     
   6.12031951059921     
  -8.05613076624071     
   9.25243056542202     
 -0.275141663004592     
   7.80642339571397     
   8.66236309246031     
 -0.279733276320121     
   8.02644408808721     
   7.27483652907818     
   6.93029507842686     
   5.28032129154884     
   6.78322454238627     
  -9.25023361140800     
  -7.18537881392727     
  -7.13191420829610     
 -0.289040226872485     
  -9.70913240440689     
  -5.71661643914188     
 -0.295768499162968     
   6.84549010265619     
 -0.292929821279537     
  -7.89834904421561     
  -6.37842697687681     
  -5.97260760137363     
 -0.296321406862234     
  -5.45936267779240     
  -8.88353375669066     
 -0.295552266690758     
 -0.292912714197653     
   7.33226945772445     
  -8.76570197073641     
  -7.80516334975635     
   7.96049159156025     
 -0.296307439099489     
   5.35017894198903     
   8.46415307568002     
 -0.306617614592078     
 -0.299073543062944     
  -8.27549811460939     
   9.26613908000834     
   8.27636952190983     
   5.05614521576531     
 -0.304276903646603     
  -6.52452542998126     
   5.76278346089504     
  -10.2712993246078     
  -6.51953720059367     
   5.12068507126233     
   7.21332362738993     
   6.75061875285346     
  -7.35054508201138     
  -8.57987992320769     
   6.92913009400531     
 -0.299062961705680     
 -0.303346541261103     
  -5.64294091431859     
  -6.72391925159580     
 -0.305985637574805     
   6.14534908625601     
  -9.40856056695408     
  -8.62376534506951     
  -9.97958290967229     
   6.62533296249157     
  -8.58080682623012     
  -5.56568464419854     
  -9.78071288771999     
 -0.299521599456832     
  -9.84318193119694     
  -7.31072500246032     
 -0.306164607219459     
  -9.47140146624377     
  -1.75153001257728     
   6.44942676273398     
   6.18293360242255     
   5.01870825493921     
   6.43408031617909     
   4.51088931320341     
  -1.18217738171599     
   5.11189571057642     
  -1.58970833915391     
  -6.75811835262055     
  -8.13524174929465     
  -6.85500104623671     
   9.72943302452280     
 -0.274556174675608     
 -0.269761300569723     
   6.35282533884249     
   7.63914124332045     
   9.22887859088355     
   5.86090845834381     
 -0.270153911402124     
  -10.2701389934960     
   7.22454463747792     
 -0.276318497720680     
  -7.73039158373442     
  -9.61481019096520     
 -0.270498390428864     
  -5.67124362587840     
  -7.94339679779220     
 -0.265805714739855     
  -7.63725731973603     
   5.49778436505483     
 -0.262237366924579     
   8.15368585542710     
  -10.2714153577190     
 -0.257298560616751     
   8.29890908973213     
   6.78198575656279     
 -0.277051799228262     
   4.87778727698993     
   8.03371453358405     
 -0.263861179808018     
  -8.59237938641317     
   8.94673164652461     
  -10.2750849048160     
   7.35881514115322     
   5.70689977360296     
   8.31511691550481     
   5.03419273992600     
   6.76273676798180     
  -9.53772344827010     
  -10.2755490372607     
  -9.07542919104378     
  -6.94787290761148     
  -9.44506490687959     
  -6.09665105941449     
 -0.274525559754583     
   5.17061645951517     
 -0.269732273963139     
  -6.53027605584375     
   1.55565757467258     
  0.756552962448650     
 -0.270121623373857     
  0.395329178880168     
   9.72806963547286     
 -0.276284286785606     
  0.398525325425623     
   1.23180142885895     
 -0.270462677386700     
  -3.63843081651679     
   4.76467896004500     
 -0.265771915806663     
   9.33860523630811     
  -5.32679706395955     
 -0.262198727929361     
   8.96975910411276     
   8.98672679106169     
 -0.272695907795879     
  -9.98288686158140     
   1.19333626598999     
 -0.257265730196280     
   1.63839807992984     
  -9.94938969518254     
 -0.263830228048040     
  -9.96543718041455     
  -4.97726612772908     
  -3.51597185935418     
  -4.14970909972496     
  -9.80702025993801     
  -8.30838740532273     
   3.69556372403398     
  -3.81485814067616     
  -7.06323356785660     
  -5.50708873029225     
   9.19892451305905     
  -2.20420241854724     
  -9.99567428110899     
  -5.30981055648530     
 -0.301173055144879     
   6.57210021706622     
   6.61142115214985     
 -0.308629894229090     
  -9.56545899934525     
   4.89268042127244     
 -0.303635899227465     
   8.98194491296531     
   1.75318917365193     
  -6.83546319955270     
  0.588015939173154     
  -5.19094279924201     
   5.24417122226425     
  -9.50280220755224     
  -9.96580746139948     
   4.67052793542560     
   7.90208582819795     
   5.82317293374447     
  -9.98541589919116     
   7.86299784051908     
  -9.27037074144970     
 -0.298088694434352     
   6.33976473146461     
   7.79121386011708     
  -9.83800413722097     
  0.791097689957497     
  -8.71669863250590     
  -10.2757811034831     
  2.871093590600029E-002
   1.07402293555215     
 -0.304915900453624     
  -10.2715313908302     
  -1.26633839398685     
 -0.296393912257844     
   3.62994469866166     
  -4.02226679527024     
  -5.84582212303613     
   5.07332926460497     
  -3.71926166120477     
   9.72582149397714     
  -4.08321561610589     
   7.37185297920288     
 -8.076475647444800E-002
  -10.2749688717048     
  -4.10861153466715     
 -0.255915807960577     
 -0.249896178801755     
   2.56434350914297     
 -0.249772953891452     
  -9.64248203698128     
   6.72989396024450     
 -0.255706454860296     
   9.72862079274450     
   7.28970910695394     
 -0.251057657752981     
 -0.513861670253497     
  -9.91049094356443     
 -0.244050890948373     
   7.50953271060916     
  -8.05553269023587     
 -0.241426451344015     
   7.11971333542683     
   9.38227446208115     
 -0.243328164972737     
  -6.76760175659424     
  -5.83789846479989     
 -0.231661315266464     
  -7.15742113177657     
   9.72529934498112     
 -0.252940441651587     
   9.72518331186994     
   9.38413715891079     
 -0.257794454305032     
   1.28452857149827     
  -7.93705988214123     
   5.46860966616391     
  -10.2711832914967     
  -8.32687925732357     
   6.22160177696752     
 -0.854522448326603     
  -10.2710672583855     
   5.09697499023772     
  -1.55542327856889     
  -3.64670921050883     
  -7.54724050695890     
  -1.21401104026963     
  -5.84117158382690     
   5.18873904166052     
   1.24093206930705     
  -5.46417006408444     
  -2.27071208956371     
   5.09752136464841     
   6.11725562989488     
 -0.263889964853873     
  -6.46744504148014     
   3.02143486184852     
 -0.255879289349333     
  -10.0345533549219     
 -0.249861485931358     
 -0.249734911135613     
   4.23348480087070     
   9.04062433695549     
 -0.255667261240756     
   4.14809829810453     
   6.71444129612004     
   3.23119403617010     
  -10.2703710597184     
  -8.83517144060054     
 -0.251015958540544     
  -8.44535206541821     
  -5.95242864027031     
 -0.244011427692472     
  -5.64142888971179     
  -7.66571331505354     
 -0.241389886831768     
  -4.41673220377600     
  -10.2756650703719     
 -0.243284824518042     
   6.11246876741724     
   9.37052956668497     
 -0.231622862627843     
  -8.62888810114205     
   9.04868375219480     
 -0.252893617129195     
   6.01705836138667     
  -8.96331634204483     
 -0.257752065846219     
   4.82095494652011     
   5.69368185301504     
   3.46438487283109     
  -9.10651800768823     
   8.98443227081094     
   8.70214521556333     
   9.17467977376652     
   9.05691662724077     
  -9.22499081578287     
   9.37195829923659     
   8.28917146097383     
   3.76263680044042     
  -9.69704233963850     
  -10.2702550266072     
   1.27245958142858     
   9.46423886077873     
  -9.85289554380712     
 -0.263844220352668     
   9.47377417983103     
   8.89532626610769     
   7.00124052733219     
  -8.19809160537356     
   4.79142025175181     
  -9.53948896783764     
  -6.25748451659262     
   5.50585467760601     
 -0.322693210951039     
   5.04118487342293     
  0.871914328000113     
 -0.304900312395924     
  -6.10643581432422     
   5.56043583469750     
   5.95025520987984     
   7.07741788691069     
   5.63486546633033     
   9.41487005081122     
   9.72908492518925     
  -3.56221901696350     
  -1.15067937234764     
   3.24431912352365     
  0.217754699743489     
  -5.69065059626649     
   3.59086771172052     
  -3.66737206566870     
  -5.26602238691730     
 -0.856926112323846     
   2.61736356768556     
 -0.324973409151515     
   5.29001383270456     
  -9.22559729833622     
  -4.39582231862249     
  -1.89233847867999     
  -6.60863800125204     
 -0.243901279624945     
   9.13367937195904     
  -8.94153233404607     
 -0.243950742376190     
   4.85417852326979     
  -7.27589393987121     
 -0.314537751601640     
   4.94019418142968     
  0.324417843036932     
 -0.252887911127753     
  -3.05098873294730     
   8.83601832619036     
 -0.252944846963165     
  -6.88607456468888     
  -9.49633738287056     
   2.53220195175721     
   3.21307638468902     
  -5.63913496600141     
   5.21908383810492     
   3.40744642591573     
  -10.2753169710383     
   9.34842478020763     
  -3.95757589561231     
  -6.15038128607622     
  -3.24745477171189     
   1.85439631564468     
  -5.44027633632912     
 -0.669561520483918     
  -8.85512184484020     
  -9.82817870256336     
 -0.321348421755629     
   8.42220327734672     
  -7.79500009943935     
  -5.60734905411437     
   6.84894124280655     
   8.08531117967232     
 -0.310765172270000     
  -5.80634679539612     
  -4.46335741211945     
   2.58348381631352     
  -4.30325554086994     
   4.83156838694406     
 -0.325993892865208     
 -0.812129036830803     
   2.76439875095466     
   4.77588861116328     
 -0.176340017555634     
  -7.38580476677267     
   2.87862488177319     
  -7.12426522378036     
  -5.23422602124619     
 -0.230496105984779     
  -4.99661323675839     
  -1.24429442448745     
 -0.230541514133431     
  -10.2706031259407     
  2.351634088184134E-002
  -5.51385525567273     
   4.98714578790974     
   4.10748611745787     
 -0.318797860298535     
   2.32681084740438     
  -10.2707191590519     
 -0.333617795313155     
  -7.04674054666096     
   3.71432268484460     
  5.018484886314475E-002
  -5.46856115099837     
   5.22712888485189     
 -0.295540522331707     
   3.38706298621037     
  -3.38276237717764     
   1.78305819533087     
  -3.69365074754696     
   9.72413901386927     
   2.68766664829659     
   2.10622368885168     
  -5.79189185364984     
   4.46308042391982     
  -5.98796300622958     
   4.64227964548120     
 -0.340286984353326     
   4.29256626774199     
   2.96376299916337     
 -0.227189634049804     
  0.960288645052077     
  0.254107650178579     
 -0.227135982554853     
  -9.77526843308220     
   1.45404161719205     
   1.26815327843905     
   1.06529126828552     
   2.97328336434232     
   9.03814456955543     
   6.34007458506217     
  0.639061065445147     
   4.22729353094223     
  -3.47977174229215     
   4.76155475459483     
 -0.220315905396089     
   1.22679742429258     
   1.67377039775262     
 -0.220356267820462     
  -10.2708351921631     
   1.28073043460402     
 -0.336880100307776     
  -10.2746207723712     
  -7.41548579287017     
 -0.331969589565718     
   2.57680096498356     
  -7.73592156176449     
 -0.321937021235216     
  -8.75226627744112     
  -3.73000626080348     
   8.56051802806152     
   7.02068213977149     
  -2.62562139579275     
 -0.342306583945567     
   4.64873470953593     
  -8.03700923253322     
  -8.96894203910761     
  -7.72625190262361     
   3.14078996023191     
 -0.354237428901441     
  -7.36673308713555     
  -10.2729818046984     
  -9.02547901808210     
  -8.94218647334201     
  -7.43591757030777     
   4.62246454957772     
   2.57407191114928     
  -9.65007762282814     
 -0.327087198550551     
  -9.59791654562375     
   3.24026843910284     
  -7.33432963540750     
  -10.2748528385936     
  -8.37440906734746     
 -0.218943882642569     
 -0.207381643555948     
  -9.85757837035967     
  -9.02245317063767     
  -8.41520154837625     
   9.72873682585569     
 -0.207142924169948     
  -8.66032001202597     
  -8.55183705601437     
 -0.192794444680812     
  -8.91476728853118     
  -9.27413196301558     
  -9.02622675145274     
  -6.56392517053192     
  -9.34768000762300     
 -0.218897739106343     
  -5.22020132106769     
 -0.207339389838699     
  -9.33089031937070     
  -9.04920873640272     
  -9.22599593168251     
 -0.207092973303764     
  -8.91540932206426     
  -8.71226104223569     
 -0.192750356647248     
  -8.99469840250169     
  -8.34765350153846     
  -5.33009406836014     
  -8.88850079733815     
  -9.39756001486794     
 -0.310864744376527     
  -6.28754700603031     
  -1.19860300392791     
 -0.302046062137482     
 -0.774520918999416     
  -2.26773917602730     
  -1.49072894137405     
  -9.21761732676293     
 -0.867377277404115     
 -0.325901745334162     
  -4.59246814937775     
  -9.58316422458001     
 -0.315887508882897     
  -5.85316586628991     
  -8.64826975426861     
 -0.315569658690271     
  -8.77177947494753     
  -5.00328376978527     
  -5.73574536049820     
   4.86396393401284     
  -9.61012540401219     
  0.988664664594568     
   5.57139160584023     
  -8.65829777034516     
  -10.2731993667786     
  -8.99569760487267     
  -5.04007322995967     
   9.72920095830043     
  -9.81340962509162     
  -9.16878059556406     
  -4.64946610540370     
  -8.82081714819986     
 -0.909023536807609     
 -0.280733831551917     
   4.83170763589658     
  -3.31209308337829     
  -9.55383248497432     
   8.17069865287919     
  -9.28978917797753     
  -9.56874916954618     
  -4.04101889133308     
  -3.50368304570117     
 -0.283537391323767     
  -8.86146089916359     
   9.14899627518493     
  -7.89694941819744     
   1.21287829590970     
   9.36637688691900     
 -0.245575105187734     
   5.39039986923598     
  -8.74025112561432     
 -0.191789104200070     
  -8.01554212838291     
  -9.54500653233276     
 -0.176769246725666     
  -9.47401367011589     
   1.43851466618717     
 -0.198583538986705     
  -7.77110526156511     
  -9.13768621437429     
 -0.191737913713162     
  -3.82574390864165     
  -4.96004647388131     
 -0.176723430229707     
  -3.47457866085894     
  -5.33436908549316     
 -0.198524288446806     
  -8.98121658952243     
 -2.953995597600604E-002
  -9.59859930594185     
  -7.64235538123016     
  -10.2737070116325     
  -8.55320113845206     
  -8.68505333611010     
  -9.61403505864376     
 -0.325911143777937     
  -7.44381741538428     
  -4.24907468124810     
  -10.0067725748754     
  -8.62879166230556     
  -4.20686962061023     
  -8.51732358743159     
  -7.29034859303580     
  -8.88323893786907     
  -4.92325701370428     
  -8.71180890187508     
  -8.79282066348309     
  -4.56637903016523     
  -3.59767759748585     
  -5.20845737906786     
 -0.167858942980478     
  -5.07686269042399     
 -0.159582335488788     
 -0.157082022984643     
  -8.60482271241861     
  -8.70872276681354     
 -0.167414261088628     
  -8.37434438616556     
  -8.52392641050148     
 -0.156252653330673     
  -8.01943144771224     
  -9.24914567729582     
 -0.166000758965222     
  -8.04156266199012     
  0.363441862125091     
 -0.146650851125108     
  0.614720723892759     
  -8.92148099217984     
 -0.141618058491305     
   2.94065391544625     
  -6.30639302899923     
 -0.142884288844203     
  -5.31542018404558     
   1.98851234840543     
 -0.181414197113242     
  -8.63154220457990     
  -8.35478063783513     
 -0.181102847310319     
  -4.11734938421342     
   9.72931699141162     
  -9.00334780380381     
  -8.26287006682423     
  -8.72437003192627     
  -3.32169698006996     
  -8.59726330840445     
   4.36225383418263     
   9.03083960819164     
   3.24865280784008     
   4.01465036898376     
  -8.57797184690048     
   9.22179448111752     
  -3.99413935143777     
 -0.193081461637540     
  -8.96317004679442     
  -4.69839520786539     
 -0.135525856560356     
   2.36334909587968     
  -4.45212949523828     
 -0.123103615263678     
   4.71681499920243     
   1.46302954410487     
   3.49675827355871     
  -9.36981122190440     
  -6.27881195925599     
 -0.125934437973299     
  -7.66195104287931     
  -8.29457977182444     
 -0.114632962492268     
  -7.07807310291335     
   2.18818816101451     
 -0.118437549898571     
  -8.55098960789718     
  -8.32089793577419     
   1.81335141352576     
  -8.23135656948761     
  -4.73518466803886     
 -0.104798908431078     
 -0.408350995377494     
  -8.29417482163758     
 -0.104158126583135     
   3.71001643232817     
  -8.33264942355376     
 -0.102979623902608     
  -8.39904306638879     
   4.00149150291868     
  -3.72737403991794     
 -0.607699826259783     
   3.87163501981043     
 -9.779326040562134E-002
  -8.11571461514590     
  -8.26738161524152     
 -8.491930204668896E-002
   4.36017810135001     
   3.97827082323834     
 -9.418961862644994E-002
  -5.20304726710750     
   3.31829625344866     
  -3.03939215728378     
  -2.39324419101404     
  -4.35102537920979     
  -3.20281496827495     
   3.01106304499127     
   3.69317300042402     
   1.63819047875934     
  -7.97861223440258     
  -8.48580384832261     
 -7.825028786711101E-002
  -2.99667259394108     
  -4.34707897576179     
 -0.167911468586599     
 -0.159629720534262     
  -8.94626010418397     
 -0.157135965790478     
  -1.22807401109511     
  -10.2747368054824     
 -0.167473742870728     
  -2.20474145736539     
  -1.94317045967901     
 -0.156313859265800     
  -2.26154752238461     
   1.44401662181835     
 -0.166069905532919     
  -1.27160635499412     
  -4.39032075068541     
 -0.146707944691968     
  -2.90667869913523     
 -0.971267230337408     
 -0.141666828852522     
  -2.58399408319856     
 -0.622084621681175     
 -0.142950114830886     
  -1.57196200036233     
 -0.926788810535629     
 -0.181469421019685     
  -3.32174753055703     
  -1.83051019757918     
 -0.181166552128157     
  -3.91273454645655     
  -1.96119907536130     
   1.64830827104007     
  -2.00578544168192     
  -1.61641075368441     
  -1.31607036402905     
   1.61367560102828     
  -2.35025118113034     
  -9.51063085809763     
  -1.70530826939924     
  -1.91676833119050     
 -0.617451713461478     
  -2.95243479000531     
  -2.89259281840910     
 -0.193155946000051     
  -4.14069046401337     
  -2.30615716332647     
 -0.135581674529784     
  -2.13186466848173     
  -1.14796258937623     
 -0.123153579782426     
   4.69314143743197     
  -8.15139820820314     
  -2.60632627938300     
  -1.46517030283895     
  -1.66086504138788     
 -0.125991880917651     
  -8.27178147602226     
  -1.49749633757254     
 -0.114688418511909     
  -7.95741525586729     
  -8.34281602842574     
 -0.118500728220187     
  -7.90298382802392     
  -7.72834468614454     
  -8.98054039433454     
  -4.42461211829786     
  -7.88570808729396     
 -0.104857739259989     
  -8.21345511927809     
  -8.00842752089092     
 -0.104209107741146     
  -8.24051831659721     
 -0.281673419082332     
 -0.103049041523092     
  -2.69505834308949     
   4.45277793673966     
  -5.11889539698580     
  -6.71644675410568     
  -7.95682383448555     
 -9.784893795455665E-002
   4.39600228375213     
 -0.626470341222631     
 -8.497112091411535E-002
  -5.30479085918864     
  -7.99730023342670     
 -9.425068907428626E-002
  -7.95105569764652     
  -2.09138518999967     
  -5.15044160808359     
  -8.08170645225715     
   2.34327510810398     
  -9.13198833163441     
  -7.49953450995429     
  -8.66799861367960     
  -7.68999912367953     
 -0.432194339462299     
  -1.09845131269605     
 -7.831711821300545E-002
  -7.93286116947021     
   1.98861478427079     
  0.705192795647204     
  0.707383556603430     
  0.689488777124704     
  0.683189715659137     
   3.51703760280959     
 -0.807051584934062     
  0.730548301797865     
  -7.38882798868539     
  -7.64613710492796     
  0.705220264338814     
  0.689510783349264     
  0.707404088047715     
  0.683220907671361     
   3.83598284333507     
  -7.02472785263414     
  0.730565510999365     
  -7.36215176370340     
   3.73319235826359     
  -7.85214462697915     
  -1.31427343628303     
   4.66931033382697     
  -8.60985365429954     
  -5.38899910476683     
  -4.50348723871156     
   4.71443147284030     
  0.670655363589447     
   3.60959278131473     
  -8.06369387626666     
  -7.78546280021931     
  0.670631875683561     
  0.749605155698851     
 -0.947647866803154     
 -0.822856350412240     
  -6.66483235872219     
  -3.89658018567138     
  -8.31486908766078     
  -2.65156573390354     
  -7.09937515973032     
 -6.547020983137525E-002
  -8.01025366679930     
 -6.552269968945601E-002
   1.83786629448748     
   4.59637487452751     
  -8.46418859650076     
  0.534482019563298     
  -7.64251159983115     
  -1.95766493952250     
  -4.93129590252039     
 -0.303041228988955     
  -10.0079268472954     
  -9.78966155311942     
 -0.361714421852603     
  -9.33869699392801     
  -7.69960939772516     
  -3.29723302782460     
  -9.95315824266395     
  -9.64559336341714     
 -0.342680618435615     
  -9.42967868443631     
  -6.54399004823760     
  -1.33998533779196     
  -1.79108938410530     
   3.77804397490369     
   4.42665440601496     
  0.381335872852978     
 -0.353891626467806     
 -0.124757772084076     
   2.38786397331806     
   2.71311096837642     
 -0.127570692343224     
  -7.84996151097564     
  -3.34184452884361     
 -5.546128434042250E-002
  -9.07462950521157     
 -4.580385806161853E-002
 -5.552445457851315E-002
 -4.585687056162762E-002
   9.20834706935640     
 -0.308439843164837     
   3.67154142732471     
  -9.57608192344440     
 -3.648212304349489E-002
   6.42639060497062     
 -2.600591789154298E-002
 -3.654654010093000E-002
 -2.605930745579126E-002
   4.11326392969284     
  -5.07901978105653     
  -8.69012982795859     
   5.83178240178519     
  -3.25229521762134     
  -9.37134681838833     
  -7.05142249471821     
 -1.641302076155658E-002
  -5.75604659625750     
 -6.085525806809149E-003
 -1.647775719197813E-002
 -6.139163948842274E-003
  -7.62025073971460     
  0.663387923731942     
  0.650831695335595     
  -4.07987226419705     
  0.663353347759086     
 -0.834026621509569     
  0.650806685146137     
  0.698485001083677     
   3.95555506490915     
  -1.87043069043522     
  0.698443075406507     
  -7.61935667334776     
  -7.87914034271556     
  3.750140174441750E-003
  -7.56544922968184     
  1.393617210423892E-002
  3.685212119376354E-003
  1.388240658919140E-002
  -6.25833485644925     
  2.399626943782425E-002
  -4.57743425008401     
  3.405889338552130E-002
  2.393126828434237E-002
  3.400511506343691E-002
   4.53127753653569     
  4.431016544567568E-002
   2.21270304053866     
  5.423993241465842E-002
  4.424520085414055E-002
  5.418624410934820E-002
  -7.67285383228911     
  -4.77197412846965     
  -8.85171058836925     
  -7.59563711878265     
  -1.48603199897077     
   9.72683678368488     
   4.79125523322681     
 -0.164497157414125     
  -1.43233089906682     
  -2.47531030249748     
 -0.163782636174698     
  -5.11365214991378     
 -1.188453229367007E-002
  6.468034129955851E-002
  -7.68449293550408     
  7.450061200964049E-002
  6.461551426994426E-002
  7.444711001966002E-002
  -7.27659663078118     
  -2.43435081312490     
  -7.54703756283374     
   9.72460314631401     
  -6.64061308554953     
   4.26679109451803     
   3.03547515424176     
 -8.274880678676917E-002
  -7.92998574341654     
   2.56395121777859     
 -9.034781919870886E-002
  -4.03378743303638     
  -6.99801482568239     
  8.510185836078871E-002
  -4.84555302583940     
  9.480755203041921E-002
  8.503726277619972E-002
  9.475432648328852E-002
  -4.80876358771773     
  0.105571113443074     
  -6.68732240291629     
  0.115173827886998     
  0.105506837683078     
  0.115120963138830     
  -6.62843641227483     
  0.126079683331959     
  -6.65436203361743     
  0.135584742848188     
  0.126015810965827     
  0.135532322191389     
  -6.20826580261384     
   3.09391937819221     
  -3.76704974984883     
  -8.20585077346061     
  0.676878718051201     
   3.36481203070820     
  -7.98349810124420     
  -9.92622795633493     
  -4.88234236350919     
  -3.46459665402182     
  0.658224423469921     
   3.33118744248172     
  -3.16214379444135     
  0.678035615283481     
  -3.50691733057927     
  -3.12122700268286     
  0.644012853124546     
  -7.34873306737706     
  -3.85253162458989     
   4.08873035983295     
  -7.53102972181339     
  -1.19250765734688     
  0.676837169359368     
   3.73838463307440     
   3.49403233464180     
  -4.50387488983001     
  -3.94654594402608     
  -7.04710614797373     
  0.658176401786446     
  -7.23761729003848     
   3.86056519206171     
  0.677985427112179     
  -6.94592144581649     
  -7.24509515692497     
  0.643975528133798     
  -7.58514895932588     
   3.57746459398847     
  -6.88055734286782     
   4.68173016880779     
  0.630509408302030     
   2.87725120304603     
  0.630535942077221     
   3.02445805104688     
  0.146562003640547     
  0.155976360275446     
  -2.21382605933458     
  0.146625393629983     
  -3.81118048618108     
  0.156028264102565     
  0.167134360376158     
  0.176462962804105     
   3.12678218806563     
  0.167197194031896     
  -6.86443475210133     
  0.176514273366170     
  0.187799971790530     
  -4.30848876822557     
  0.197037894698385     
  0.187737762353323     
  0.196987237596778     
  -6.02040826865451     