 TITLE="euler solver on unstructured grid" 
 VARIABLES= "X" "Y"  "P" "Rou" "U"  "V"  "nuT"
 ZONE NODES=       11173  ELEMENTS=       18178  ZONETYPE=FEQUADRILATERAL
 DATAPACKING=BLOCK
 VARLOCATION=([3-7]=CELLCENTERED)
 -0.307091802852467     
 -0.302258409539359     
 -0.302466355512345     
 -0.306829353547230     
  -7.77236877774521     
  -8.65907406335179     
 -0.301267436708182     
   8.93925211480077     
   9.04677496172424     
 -0.312190439925733     
   8.32872192586133     
  -9.46713324731952     
 -0.310042848273850     
   8.44868993742405     
   8.85111052892786     
   5.72503362999763     
  -9.31117610440060     
  -10.0703320889069     
 -0.317617318497801     
  -9.28017925643861     
   9.36323008338243     
 -0.314452949464030     
   9.99237414448300     
  -10.1673801352229     
 -0.317949833170398     
  -9.43152052908674     
   9.27053519361957     
 -0.311374989161880     
   9.46101198151056     
  -8.87400744864843     
 -0.307075816128732     
   6.36448116028470     
  -6.78448400674029     
   8.15106386990871     
  -6.78516566860208     
  -7.45912261611376     
 -0.301918386892946     
  -6.27282817505430     
   8.34395821577581     
 -0.311427144137516     
   6.01209714974860     
  -8.35957082235023     
   7.13598326908441     
   5.80863964048185     
   5.92192095629518     
 -0.306806450337783     
   5.07328609438726     
  -7.87925435145889     
 -0.313697189864528     
   5.48751577337008     
  -6.30303770158139     
   6.96665601599897     
   6.02033308279679     
   8.41736170648010     
 -0.306103373827563     
   8.90177253689061     
  -5.90345331466918     
 -0.310829176744998     
   7.26019863266961     
  -8.96436234453414     
 -0.300584139625521     
  -6.44360181311502     
  -5.58480002349041     
  -9.39827772418513     
   6.79791707889722     
  -8.73815282956941     
   6.44928318143244     
   9.14475362785037     
  -6.10726816668171     
  -6.79967085219740     
  -6.74613519855646     
  -9.76402110555009     
 -0.284078617740648     
 -0.283531189025790     
 -0.278785257941768     
 -0.289571748290837     
  -7.84469437442337     
  -7.21080936665947     
 -0.288262702124068     
  -8.34546060756519     
  -7.30785657501119     
 -0.284447485764943     
  -9.29704332247286     
  -6.91977344286359     
 -0.289839677613493     
  -8.84255127333599     
  -9.43319878939553     
 -0.293909378394585     
   9.62160710013146     
  -10.0368146180886     
   7.61073617347511     
   6.63832836533891     
   5.66280929986136     
 -0.297561867834488     
   8.52096443955443     
   6.11411544840639     
 -0.284453404679636     
  -9.95544425656542     
  -8.88247132268202     
 -0.280349489341451     
  -8.38173768248551     
   8.46260276802088     
 -0.278125331727686     
  -8.91904560947871     
   8.29894848186439     
 -0.273705350931806     
   9.06951818374544     
   8.78909643236567     
   9.13443087320985     
   7.88071287433561     
   6.80200701476892     
   5.18706451368677     
  -9.61495076657878     
  -7.88127471507919     
  -5.90405809842026     
  -7.91722614635388     
  -7.84799483029248     
 -0.287943505445719     
  -8.41827023041640     
   7.67332036506454     
 -0.286584382231494     
 -0.281194378574663     
 -0.285713972404967     
 -0.291893539665981     
  -7.59659574924870     
  -8.70827423012668     
 -0.290921459479592     
  -7.20875729686523     
   8.13528523382980     
 -0.287305205825932     
  -7.10881672785488     
   7.63738924567210     
 -0.292802027699233     
   7.84843439635793     
   7.55339577917734     
 -0.288889651479866     
  -7.32815075508058     
   5.85875397932779     
 -0.298136078684159     
   7.04944588063597     
   7.71705843088307     
  -8.85063214594862     
   5.57646448652431     
  -8.09762329247685     
 -0.300059637523096     
   7.19454005086873     
   5.25686875557253     
 -0.283020810806345     
  -8.20971621580197     
   7.44907847482520     
   6.30283360208012     
  -7.83285133767005     
   9.40675733108983     
 -0.276322243732334     
   8.05016762672309     
   8.81840436707341     
 -0.281078205230900     
   8.29376502245684     
   7.02299914185672     
   7.13514303945997     
   5.09359741838735     
   6.97152999479284     
  -9.45003562208246     
  -7.38046937249599     
  -7.34409434253402     
 -0.289876718696824     
  -9.52459052428556     
  -5.42890777947285     
 -0.296578005815968     
   6.64983816504482     
 -0.293627998938390     
  -7.72359570561102     
  -6.15100201298151     
  -5.73546868475902     
 -0.296867708838514     
  -5.22106484046565     
  -9.05681364588218     
 -0.294530085581698     
 -0.291971031471174     
   7.59017997360116     
  -8.95560424401978     
  -7.61241186410731     
   7.77683328635835     
 -0.295514811330059     
   5.14599004117787     
   8.71206557813302     
 -0.306955665169207     
 -0.299456392420480     
  -8.45573374540420     
   9.51356432994050     
   8.44565911106463     
   5.32059561789375     
 -0.304765750009665     
  -6.74348155960789     
   5.51857159863741     
  -10.1040484921472     
  -6.78940004363280     
   4.87567384566045     
   7.38951659518565     
   6.89830013853096     
  -7.18558636086897     
  -8.34682399077259     
   6.74879166882537     
 -0.298431497300204     
 -0.302585442675201     
  -5.43939593776795     
  -6.55131355987568     
 -0.305336282166568     
   6.29146134950407     
  -9.53990665045442     
  -8.37199798480007     
  -10.1084538720882     
   6.45837766266974     
  -8.30768917514519     
  -5.81089948897380     
  -9.92448404735498     
 -0.298631539084748     
  -10.0311988981615     
  -7.12787060175934     
 -0.305160038369077     
  -9.19538722014353     
  -1.90413597830334     
   6.60632079210938     
   6.03018584110962     
   5.18359057317487     
   6.25106003860927     
   4.69031705166272     
  -1.33885935054857     
   4.84699947965316     
  -1.75468811225070     
  -6.56368741440432     
  -7.89221896635759     
  -6.70068955776484     
   9.95865774124272     
 -0.275909413199584     
 -0.271040404975387     
   6.55324059296143     
   7.80302456975214     
   9.05317306196678     
   6.02555909532032     
 -0.271589170904487     
  -9.99166048134627     
   7.46247798775810     
 -0.277843358863620     
  -7.91805169212638     
  -9.32548124960669     
 -0.272097665925632     
  -5.93699707809477     
  -7.78652464713149     
 -0.267315198473162     
  -7.38038098281438     
   5.64699352930653     
 -0.263980315554495     
   7.98904910322643     
  -10.1152872932273     
 -0.258765160020250     
   8.14928514481966     
   6.62903729895090     
 -0.278826826527246     
   4.72229157789839     
   8.18413431773549     
 -0.265235008219627     
  -8.42839944400480     
   8.78792291464647     
  -10.4707143730939     
   7.50688691884277     
   5.43311960784882     
   8.09736978177817     
   5.25905072265749     
   6.50482445261077     
  -9.47333256442535     
  -10.5156695774142     
  -8.92370900851460     
  -6.71481435694280     
  -9.39322524893445     
  -5.90945226432842     
 -0.272944095765952     
   4.88313474438141     
 -0.268228929405225     
  -6.76566432290458     
   1.82939737516884     
  0.481012930066365     
 -0.268461798697980     
  0.109832308788868     
   9.82660182917962     
 -0.274529736655844     
  0.122983263999256     
   1.49773716622700     
 -0.268638551775057     
  -3.91473229121717     
   4.58064965878912     
 -0.264041482178059     
   9.36532405592622     
  -5.03925043245946     
 -0.260237797778799     
   9.00773725013256     
   8.92235819425142     
 -0.270695268602231     
  -9.96632487830526     
   1.34928691936176     
 -0.255585252481044     
   1.78773011707698     
  -9.89311991803101     
 -0.262237065047060     
  -9.89533129498835     
  -4.69913835080245     
  -3.38277828237093     
  -4.42041727447859     
  -9.77694776640793     
  -8.47154154325200     
   3.42136647428174     
  -4.07740006805478     
  -7.20503999947318     
  -5.23488486913290     
   9.29538185312617     
  -2.36170648811502     
  -10.0208024462488     
  -5.20924908771942     
 -0.301852949785304     
   6.74337653675577     
   6.89400567103777     
 -0.309272650630375     
  -9.48831684079950     
   5.07111248121288     
 -0.304571240746562     
   8.83393648895196     
   1.47596829952162     
  -6.62165155027294     
  0.852575514883439     
  -5.10676902723940     
   5.45434985436280     
  -9.55039234294433     
  -9.88133149474833     
   4.39468599730444     
   7.63057545337236     
   5.65111002368576     
  -10.0378044890242     
   7.60749945554530     
  -9.45449354010113     
 -0.296865128030063     
   6.09367558085791     
   7.97167501332300     
  -10.0933118970224     
  0.532838421445983     
  -8.99840809418275     
  -10.5381471795744     
 -0.247000341118962     
  0.807681513793900     
 -0.303546200735912     
  -10.1265260943074     
  -1.09906349533679     
 -0.297393684169554     
   3.52680596305553     
  -4.09578645351183     
  -6.07414390280986     
   5.06847088790269     
  -3.43884919460356     
   9.60885006149754     
  -3.81060570568264     
   7.20659490815075     
 -0.235820306080619     
  -10.4594755720138     
  -3.82157124118748     
 -0.257559755215223     
 -0.251455121279621     
   2.29440471301209     
 -0.251492505895900     
  -9.49597770564781     
   6.44176413243495     
 -0.257478700921725     
   9.87998613368205     
   7.01659870464081     
 -0.252951927879152     
 -0.238415409650904     
  -9.92623976453918     
 -0.245840905171202     
   7.22107882646172     
  -7.76685186155315     
 -0.243078621102044     
   6.83142147944833     
   9.52190278126275     
 -0.245304311765534     
  -7.05012135911582     
  -6.00003874438170     
 -0.233408040835304     
  -7.43977870612921     
   9.55827545705579     
 -0.255079582703406     
   9.54703665597570     
   9.31361197291253     
 -0.259718959514856     
   1.42874393312185     
  -8.21909340015597     
   5.31430850991684     
  -10.0928096910671     
  -8.60875074716936     
   6.50434832402439     
 -0.588420445332026     
  -10.0815708899870     
   4.92726291329912     
  -1.82613940871330     
  -3.87965882785402     
  -7.82943605314259     
  -1.05662916570780     
  -5.69597984250702     
   5.15014330324139     
  0.965154338226715     
  -5.61339677266102     
  -2.10270326644662     
   5.22840288439452     
   5.85914263136805     
 -0.265972789876474     
  -6.22344746108069     
   2.92892619291742     
 -0.254022614796422     
  -9.92695418141792     
 -0.248094819506223     
 -0.247807739012982     
   4.32091485332213     
   8.94021969728408     
 -0.253682463027887     
   4.22356639822737     
   6.50310795295472     
   3.31469581220611     
  -10.0141380835065     
  -8.54616655557992     
 -0.248913001843350     
  -8.15650920856654     
  -5.95613021329011     
 -0.242018550685348     
  -5.59555676710469     
  -7.37719451453977     
 -0.239537034777800     
  -4.49980126358960     
  -10.5269083784943     
 -0.241106417353664     
   6.20221095202153     
   9.41131693147055     
 -0.229683573292741     
  -8.71544189049452     
   9.11463977364719     
 -0.250544226480886     
   6.09733967343479     
  -9.05470571554844     
 -0.255613274061674     
   4.79249227746718     
   5.77826730623746     
   3.55940508965194     
  -9.38806544119613     
   8.85554717245501     
   8.66591398122412     
   9.05660578495691     
   9.02054760629636     
  -8.93582390259331     
   9.26451613916530     
   8.00039352048849     
   3.84737810048554     
  -9.59995826100220     
  -10.0028992824264     
   1.48225026860845     
   9.53231883019389     
  -9.91653817059996     
 -0.261542042960317     
   9.34547853450037     
   8.86807240121998     
   7.28366301805116     
  -8.15999279154683     
   5.00438291057168     
  -9.59786891952722     
  -6.05004466711375     
   5.45528920103539     
 -0.322212857170326     
   4.98894927139950     
   1.14705649749483     
 -0.306149122603582     
  -5.81856512648624     
   5.27279209139480     
   5.66244943840819     
   7.29880860422300     
   5.74177829379487     
   9.53759289933368     
   9.92494133800243     
  -3.64162894046996     
 -0.891463192305410     
   3.14343963070154     
  5.374609096627903E-003
  -5.72774608341059     
   3.42583543452234     
  -3.78474634399742     
  -5.06974805627703     
  -1.02222151532639     
   2.87815212898823     
 -0.325128869191571     
   5.42714998766587     
  -9.49711676791371     
  -4.51415409719997     
  -1.72602384807321     
  -6.66764054853794     
 -0.241429177666560     
   9.05129489374993     
  -9.02204540572061     
 -0.246220068959941     
   4.63859276408561     
  -6.98753716752638     
 -0.315239374552292     
   4.92351950141901     
  0.597186422313181     
 -0.250053892752489     
  -2.78414748290806     
   8.76286681279011     
 -0.255568616282571     
  -6.59787982051300     
  -9.77772278820951     
   2.80536392866561     
   3.04764446978790     
  -5.54661101795503     
   5.19361279903765     
   3.68149864413287     
  -10.4931919752541     
   9.34032715524153     
  -4.04221773161009     
  -6.10064318010655     
  -3.36230605881972     
   2.10790895971662     
  -5.65215336695794     
 -0.822941785386040     
  -9.01118326582051     
  -9.86646144732852     
 -0.320492204097641     
   8.56359049335341     
  -7.51932060735599     
  -5.43004885890844     
   6.60783702527084     
   8.22346209131385     
 -0.312263861764422     
  -5.77291660269063     
  -4.34267837670320     
   2.66072507070436     
  -4.19172544182644     
   4.59746410105838     
 -0.326593105661967     
 -0.647975006700171     
   2.52504578722745     
   4.52386882347186     
 -0.411880447448301     
  -7.23560471337333     
   2.77720997392258     
  -7.39020488568590     
  -5.36238633271989     
 -0.228223910921525     
  -5.13207074954213     
  -1.41323467783910     
 -0.232622079210697     
  -10.0366156856667     
 -0.199081922555198     
  -5.70439966369110     
   5.13726020636570     
   4.22534897385896     
 -0.319822497037530     
   2.41041149591149     
  -10.0478544867467     
 -0.333015349979955     
  -7.17351689953674     
   3.98741603917658     
 -0.210604036932715     
  -5.64391233944822     
   5.23461183706179     
 -0.297401683472408     
   3.65210071183252     
  -3.59874411466128     
   1.51881678696213     
  -3.91576150059788     
   9.44588744625484     
   2.77447197196341     
   1.83948696958630     
  -5.66104816584827     
   4.65671754244226     
  -6.27080666508906     
   4.91179282446787     
 -0.340454353878967     
   4.55300403056002     
   2.73339494081335     
 -0.229666691736116     
  0.742330714363135     
  2.249775192647194E-002
 -0.224470084722434     
  -9.51597919034310     
   1.24725667844662     
   1.48875661607375     
  0.858768320846849     
   3.12575223689596     
   9.16890558366421     
   6.05210678542157     
  0.428676351265189     
   4.50213770832866     
  -3.32259577280339     
   4.96302335217590     
 -0.218289780729091     
   1.03102001608725     
   1.88647593874105     
 -0.222199227386189     
  -10.0590932878268     
   1.06300193787328     
 -0.335938929362686     
  -10.4257591687735     
  -7.27693187691632     
 -0.331755300230354     
   2.74534848831983     
  -7.87399806420593     
 -0.323956076983743     
  -8.89357580441054     
  -3.94149962204753     
   8.84229240610470     
   7.18150975884737     
  -2.89962405797669     
 -0.343297520624556     
   4.90270340270778     
  -7.91020408460640     
  -8.85975438958124     
  -7.59357190067165     
   2.90089403092916     
 -0.353537819786972     
  -7.50016452743700     
  -10.2670111057152     
  -9.14933001919597     
  -8.84368538987755     
  -7.57784847726841     
   4.86618406589207     
   2.75369111475022     
  -9.77081857237486     
 -0.325817737904522     
  -9.59669560593306     
   3.40176536938711     
  -7.37793043180927     
  -10.4482367709337     
  -8.24278985282463     
 -0.221064515020794     
 -0.209320644722970     
  -9.85198715469489     
  -8.89189238898749     
  -8.36765716978569     
   9.89122493476215     
 -0.209450945000470     
  -8.63548868885096     
  -8.51595132098379     
 -0.194827426857086     
  -8.88196838664284     
  -9.35971060053417     
  -9.00360198283462     
  -6.70673333440402     
  -9.44429282325870     
 -0.216595118143718     
  -5.01407592280650     
 -0.205228010144740     
  -9.30000114915435     
  -8.90796138869063     
  -9.14407500056487     
 -0.204612775592736     
  -8.82761343930873     
  -8.84212859042524     
 -0.190557123025859     
  -9.00038947925651     
  -8.22672085307761     
  -5.11422677561888     
  -8.81141117268672     
  -9.40453893514886     
 -0.309159931516935     
  -6.22812264377294     
  -1.47591659319132     
 -0.300014609108750     
 -0.521590495747587     
  -2.54171938836283     
  -1.22647961832925     
  -9.24365667040448     
  -1.13727767660520     
 -0.324031804136656     
  -4.48821992409516     
  -9.61218867722634     
 -0.314375820023540     
  -5.79076279029382     
  -8.74590565654077     
 -0.314405664611240     
  -8.75712228504274     
  -5.22844959672692     
  -5.51221664224675     
   4.86947222126064     
  -9.70052808485979     
  0.741786174747007     
   5.31487186371212     
  -8.54323762135152     
  -10.2880838574264     
  -8.87582338928439     
  -5.25457274565961     
   9.93618013908253     
  -9.69494589140111     
  -9.22452575201410     
  -4.87951527713771     
  -8.87484575557850     
  -1.13294729836581     
 -0.283004505603377     
   4.96950744409285     
  -3.44261541616327     
  -9.51496652354034     
   8.45263505909131     
  -9.35496935791390     
  -9.63781370515142     
  -4.25860721796071     
  -3.60771268052544     
 -0.281158706006392     
  -8.79507859001144     
   9.13053207777805     
  -7.89601990710383     
  0.956762932021479     
   9.33740986738180     
 -0.511397438999725     
   5.31143757927073     
  -8.75390978112314     
 -0.194162921227642     
  -7.99575280794166     
  -9.53541449309678     
 -0.178891734089880     
  -9.45362336469884     
   1.19185172228449     
 -0.201340846159006     
  -7.62696191772606     
  -9.12523557902639     
 -0.189204683930836     
  -3.67340190301795     
  -5.19605731970684     
 -0.174454013864961     
  -3.73928883135538     
  -5.56750099260225     
 -0.195601923665135     
  -9.08371703408514     
  0.249187144727597     
  -9.67904063932767     
  -7.72594210067339     
  -10.3372536114191     
  -8.61609316327226     
  -8.55930662105455     
  -9.50564815984633     
 -0.327340240446222     
  -7.56640016121746     
  -4.49471597830826     
  -10.1214263482529     
  -8.63227618443298     
  -4.46419252738463     
  -8.51063365413773     
  -7.40370056498509     
  -8.87875588123451     
  -5.16993417077140     
  -8.57537562075763     
  -8.74978923683361     
  -4.81789946156872     
  -3.84144567328820     
  -5.47032636924470     
 -0.165271646890811     
  -5.28069589486815     
 -0.157244864027138     
 -0.154431280652100     
  -8.51115187802636     
  -8.75069726770211     
 -0.164493743848312     
  -8.38579648703995     
  -8.46235030536525     
 -0.153254137626208     
  -8.12930625522634     
  -9.24686917521815     
 -0.162617600980077     
  -8.16211274777975     
  0.109871814401114     
 -0.143853430126286     
  0.367288706250512     
  -8.86836320822388     
 -0.139221656389517     
   2.69177157014174     
  -6.16038660517498     
 -0.139669892966653     
  -5.53703474969685     
   1.73175728213135     
 -0.178691938626722     
  -8.52716862164816     
  -8.46931417654916     
 -0.177974232459494     
  -4.31361213613467     
   9.94741894016262     
  -9.11652352664205     
  -8.26414745152478     
  -8.57642223143755     
  -3.04699103508796     
  -8.62906367598097     
   4.17797704510250     
   9.03255546660652     
   2.97759046501643     
   4.25758307778326     
  -8.49500481844527     
   9.29857042936617     
  -4.22261328384215     
 -0.189431209781031     
  -8.99717696905949     
  -4.91745041918332     
 -0.132794198395457     
   2.10603756221646     
  -4.36054844423046     
 -0.120657673314079     
   4.95055234400387     
   1.23488144276121     
   3.23629333790443     
  -9.47709931581562     
  -6.14353948528281     
 -0.123128882252313     
  -7.75649184090426     
  -8.37634871199905     
 -0.111927336514634     
  -6.94433389711137     
   1.94041228232480     
 -0.115360216534312     
  -8.47872744276949     
  -8.21065185337526     
   1.56613200222796     
  -8.26095038236498     
  -4.94357356811516     
 -0.101935617077007     
 -0.630148397557305     
  -8.19462278349767     
 -0.101671332309899     
   3.94677841628503     
  -8.43650768399219     
 -9.960966918866292E-002
  -8.53492716165397     
   4.26563890509306     
  -3.82013645631423     
 -0.820349356832923     
   3.61064504752661     
 -9.508401605261668E-002
  -7.97600687488160     
  -8.17853093086701     
 -8.240035339141047E-002
   4.59806151659170     
   4.23203941093010     
 -9.122339321891967E-002
  -5.44590116003810     
   3.06887438581202     
  -3.25982215601953     
  -2.61190710746068     
  -4.57478522767784     
  -3.46257230459378     
   3.26925470012967     
   3.44322609621479     
   1.40050672243832     
  -8.06680455628186     
  -8.50743008254852     
 -7.501461864288811E-002
  -3.22781458692666     
  -4.47816157913607     
 -0.170359201923779     
 -0.161834511713102     
  -9.01279519198891     
 -0.159656103621005     
  -1.49200443355231     
  -10.4369979698536     
 -0.170255064130704     
  -2.46922239485317     
  -2.21916701236895     
 -0.159182456903246     
  -2.51221165283636     
   1.17808937081098     
 -0.169315038563033     
  -1.52469244343916     
  -4.60330721261698     
 -0.149383431298717     
  -3.15927552695800     
  -1.21806276724350     
 -0.143945483775722     
  -2.84217460808097     
 -0.862265651325535     
 -0.146045703825047     
  -1.83133831330056     
  -1.18422988090291     
 -0.184040847167100     
  -3.41308534848345     
  -2.09470930887754     
 -0.184144589939476     
  -4.01758275212336     
  -2.20557388500449     
   1.43110422239159     
  -2.23950597375184     
  -1.86514145010402     
  -1.55851088583712     
   1.35747700214740     
  -2.57959140031361     
  -9.42385819007926     
  -1.93272472412748     
  -2.17178883443396     
 -0.847738678101710     
  -3.19429906026318     
  -3.15622436975973     
 -0.196645658530084     
  -4.23491336065282     
  -2.54616666408019     
 -0.138200647026275     
  -2.33366873690618     
  -1.35220177529348     
 -0.125497165089580     
   4.79450196092382     
  -8.14250125604639     
  -2.85263389575314     
  -1.66512627849301     
  -1.89895023617266     
 -0.128692723628565     
  -8.34255278392607     
  -1.68696917210429     
 -0.117298727207155     
  -8.03463172231014     
  -8.38258397462511     
 -0.121479578343742     
  -7.82964801094377     
  -7.85491131900973     
  -9.11413492748402     
  -4.62697589896989     
  -7.94310852734962     
 -0.107633886965243     
  -8.14599915816869     
  -8.01767260737320     
 -0.106609294309388     
  -8.16237629549750     
 -0.537178978813784     
 -0.106333360556681     
  -2.91995633351157     
   4.65803603586800     
  -5.29164080332345     
  -6.57664787333985     
  -7.86209697239566     
 -0.100476863755464     
   4.62282363920210     
 -0.877620890150558     
 -8.741945472593901E-002
  -5.46855786495669     
  -8.09649976266536     
 -9.713858939087280E-002
  -7.98954754451826     
  -2.30382282895951     
  -5.33294218996700     
  -8.13072387876530     
   2.57872153502264     
  -9.09042924515071     
  -7.45765480926302     
  -8.77651560531797     
  -7.66852610051547     
 -0.635456106770128     
  -1.29258346273207     
 -8.148771029704707E-002
  -7.88439431803881     
   2.21902031964260     
  0.703583122281195     
  0.706105471390699     
  0.688147444395703     
  0.681410730992561     
   3.27661201501111     
  -1.01055293652818     
  0.729419821583614     
  -7.26096204235548     
  -7.54552409738857     
  0.706243700436695     
  0.690278935810714     
  0.708094117699058     
  0.684431944653896     
   3.95170778584981     
  -6.91236358345785     
  0.731086680210662     
  -7.24497343885508     
   3.86034897167595     
  -8.02454760164810     
  -1.54546563308151     
   4.89208902624758     
  -8.68512430717884     
  -5.58928104788079     
  -4.22408639671741     
   4.50896509148314     
  0.671502369527403     
   3.72269017867053     
  -8.19491924033184     
  -7.77435868699930     
  0.669227364579754     
  0.512562744736841     
  -1.18344093849960     
  -1.10784688248312     
  -6.54640899899223     
  -4.14675324585763     
  -8.40766701201340     
  -2.88715912128968     
  -6.95708560807098     
 -6.292718493724296E-002
  -7.89413508493587     
 -6.801127746621523E-002
   1.60916172575653     
   4.33452983529784     
  -8.51524638576077     
  0.312080841456159     
  -7.64954991271576     
  -2.12212424093998     
  -5.18948038054558     
 -0.305405039869109     
  -10.0823676408267     
  -9.89132690736954     
 -0.362006206472302     
  -9.45653144796613     
  -7.57761831640778     
  -3.53467360368675     
  -9.91064075550111     
  -9.75863787340717     
 -0.341249754497545     
  -9.30387977471507     
  -6.54363443825561     
  -1.56021499166334     
  -1.99727538434028     
   3.99293403884614     
   4.53565382114901     
  0.115047142210849     
 -0.599355870987941     
 -0.128664612113830     
   2.14906728221567     
   2.96379592830585     
 -0.123615227588153     
  -7.81863577106140     
  -3.56848200252144     
 -5.241051445912639E-002
  -9.11881056078875     
 -4.324395751153297E-002
 -5.852909330984274E-002
 -4.837867238966702E-002
   9.22130056550623     
 -0.305831093740045     
   3.91927409770721     
  -9.59353847472411     
 -3.337948242014663E-002
   6.15086305212948     
 -2.343617384485629E-002
 -3.961882640809146E-002
 -2.860741062553346E-002
   3.89982759557881     
  -5.35020823711512     
  -8.80932209787254     
   6.11469097701101     
  -3.50048531583037     
  -9.40771538484936     
  -6.92837095216007     
 -1.330341446241078E-002
  -5.89425358892709     
 -3.512147451091637E-003
 -1.957369246072788E-002
 -8.707461120239124E-003
  -7.69291473244326     
  0.664769395796059     
  0.651759903246952     
  -4.28679956427884     
  0.661420416551135     
  -1.01865419952447     
  0.649337452091216     
  0.700204152666164     
   4.06289468927956     
  -2.05537024596069     
  0.696143291580484     
  -7.52943994656516     
  -7.81781675580191     
  6.860550140775269E-003
  -7.49691962058466     
  1.650733337818491E-002
  5.717116537132727E-004
  1.129968254116234E-002
  -6.38179194555569     
  2.710176768372288E-002
  -4.73702751791655     
  3.662230449827039E-002
  2.080584898866092E-002
  3.141341318998590E-002
   4.33640689784513     
  4.740546783841083E-002
   1.98344200439867     
  5.679064083342578E-002
  4.111309048118281E-002
  5.159046842105373E-002
  -7.56154931703330     
  -4.96969671729078     
  -8.87554337732221     
  -7.65740973676677     
  -1.66351045049778     
   9.70718956948300     
   4.90292517520458     
 -0.168970465953836     
  -1.64245195612778     
  -2.67266786984098     
 -0.159630587906572     
  -5.30681904308485     
 -0.259828828928834     
  6.776058356897542E-002
  -7.73286880786457     
  7.703396909100710E-002
  6.148153026252189E-002
  7.185184291481622E-002
  -7.28142841161139     
  -2.64236399139146     
  -7.49242292861075     
   9.49084265057522     
  -6.51131501341116     
   4.02531543401531     
   3.30948328966113     
 -8.707305079167854E-002
  -7.84595761423549     
   2.31561753545375     
 -8.594737792790176E-002
  -4.15847289005314     
  -6.89633748242090     
  8.816251939742822E-002
  -5.02194299136555     
  9.731921878000009E-002
  8.190588352487072E-002
  9.216386846258733E-002
  -4.99581986528929     
  0.108607937416849     
  -6.57977253843335     
  0.117659736496280     
  0.102382279296641     
  0.112539332649919     
  -6.75348492587097     
  0.129088648468985     
  -6.75953723680819     
  0.138040882600140     
  0.122902062501081     
  0.132963492808250     
  -6.31898196074045     
   3.31871966920848     
  -3.96792747559872     
  -8.26500771673597     
  0.678588781555328     
   3.60650878383421     
  -7.87806608544086     
  -9.93197930224294     
  -5.04806601584364     
  -3.65926692718691     
  0.660252487821963     
   3.58355773177453     
  -3.35060660936653     
  0.680159283788015     
  -3.69090261824276     
  -3.32034554268126     
  0.645534137455743     
  -7.44929041248299     
  -4.03197431922272     
   4.30949113080970     
  -7.52789355589264     
  -1.37715820287481     
  0.674564434729901     
   3.52547298857884     
   3.69236470636185     
  -4.68482055104252     
  -4.18588859345183     
  -7.08983428406993     
  0.655601176290301     
  -7.29211237375365     
   4.05342026377060     
  0.675298129346140     
  -7.00948048774121     
  -7.27824344246243     
  0.641918892272308     
  -7.62143425137447     
   3.76108205164634     
  -6.88220540400988     
   4.84101989217582     
  0.628975587106491     
   2.98480253693142     
  0.631545610595673     
   3.27079242298528     
  0.143462835234319     
  0.153423804725345     
  -2.39431902208340     
  0.149602698885833     
  -4.00132782995712     
  0.158451135134118     
  0.164053305874926     
  0.173930326903837     
   3.34074507675825     
  0.170139283840680     
  -6.81904702814606     
  0.178900194508531     
  0.190703579590964     
  -4.45127636124646     
  0.199383965182979     
  0.184678062538720     
  0.194477390823036     
  -6.15223657481414     