 TITLE="euler solver on unstructured grid" 
 VARIABLES= "X" "Y"  "P" "Rou" "U"  "V"  "nuT"
 ZONE NODES=       11173  ELEMENTS=       18178  ZONETYPE=FEQUADRILATERAL
 DATAPACKING=BLOCK
 VARLOCATION=([3-7]=CELLCENTERED)
 -0.307122593743575     
 -0.302206792371809     
 -0.302591926712530     
 -0.306723671268050     
  -7.61033611375849     
  -8.88616102075260     
 -0.301036612386747     
   9.21708007590068     
   9.24724187937030     
 -0.312154760003756     
   8.53872400796815     
  -9.69706710712462     
 -0.309816921007414     
   8.63799930095472     
   8.63990694333025     
   5.42707797443760     
  -9.48325772577269     
  -10.2811849807594     
 -0.317460396647852     
  -9.49237554770188     
   9.15532997871614     
 -0.314016175684120     
   9.71586827396849     
  -9.87126875348749     
 -0.318096463603392     
  -9.16823404750657     
   9.08295995792747     
 -0.311491654392849     
   9.23693027406205     
  -9.12126199716404     
 -0.307274993588427     
   6.10313058138201     
  -6.61407637378139     
   8.43796588016649     
  -6.57410393950200     
  -7.27474457842728     
 -0.302220832637194     
  -6.07988797087134     
   8.60464102151970     
 -0.311674884610421     
   5.76966894851490     
  -8.09723639832317     
   6.85178573825698     
   5.53934688548177     
   6.13719471736321     
 -0.307174033800220     
   5.31180166616000     
  -7.60141270368089     
 -0.314116736657369     
   5.71455992907955     
  -6.57532377265676     
   6.70220539266939     
   6.25817277840261     
   8.65975409846619     
 -0.306655646921176     
   9.12726833203850     
  -6.19227462370860     
 -0.311498550994239     
   7.50973724554945     
  -9.23388928713816     
 -0.301064827190905     
  -6.18221216243854     
  -5.85223961352706     
  -9.24494236628174     
   7.03420013181585     
  -8.45913825401911     
   6.16628721286257     
   8.86384987041333     
  -5.89194057169929     
  -7.06360962439809     
  -7.03242218281305     
  -9.59088051192251     
 -0.285501691720009     
 -0.284785809844202     
 -0.280155797036259     
 -0.290901279715671     
  -7.61112450955282     
  -6.94636184572759     
 -0.289767200050183     
  -8.10171620469740     
  -7.06647270500113     
 -0.286054030226962     
  -9.05118360255080     
  -6.72622595832288     
 -0.291502957615406     
  -8.58710977070707     
  -9.20298935987509     
 -0.295417706775132     
   9.32526913658358     
  -9.81691944401759     
   7.91422827495414     
   6.40909327042394     
   5.86212771623309     
 -0.299286971293775     
   8.32584845075935     
   5.89224896944920     
 -0.286371484926362     
  -9.71090625640272     
  -8.64653044129595     
 -0.281857246099556     
  -8.15597346224495     
   8.22015752592138     
 -0.279778812517486     
  -8.70107433803581     
   8.07391179187757     
 -0.275181999956840     
   9.32070149183869     
   8.55890365564407     
   8.89165860342604     
   7.64294240752792     
   6.55536251022125     
   4.98691952243786     
  -9.86918795738077     
  -7.66567607495943     
  -6.07486023391737     
  -8.19011257920823     
  -7.59446653461295     
 -0.289069968557924     
  -8.21048517215827     
   7.37617355551059     
 -0.285398223322194     
 -0.280056319270915     
 -0.284695678030200     
 -0.290805407962948     
  -7.81460678953203     
  -8.91292702115924     
 -0.289657414248381     
  -7.43960660196071     
   7.92765715455063     
 -0.285936028827711     
  -7.32145178324182     
   7.85244353411306     
 -0.291380635817703     
   8.09395078034576     
   7.35044226643679     
 -0.287290025432726     
  -7.57775038836288     
   5.65332465904980     
 -0.296899083558175     
   7.26842221260299     
   7.49669651054258     
  -9.03748837782051     
   5.38762873913300     
  -8.31063984132062     
 -0.298528650263740     
   7.39435210764956     
   4.99960485666137     
 -0.281746941498692     
  -8.40377861168932     
   7.68132521114942     
   6.11066379819085     
  -8.06759584713127     
   9.24417497598353     
 -0.275073942832432     
   7.79353657143711     
   8.65403126682552     
 -0.279656882028230     
   8.01232271185829     
   7.28780849805103     
   6.91945645269776     
   5.28994184623700     
   6.77325197233071     
  -9.23960632277101     
  -7.17504338352601     
  -7.12068867053371     
 -0.288990142030547     
  -9.71854020761118     
  -5.73149407835585     
 -0.295719671399110     
   6.85554132834342     
 -0.292886863270125     
  -7.90728678610598     
  -6.39014575089423     
  -5.98484207077118     
 -0.296286294109072     
  -5.47166905748838     
  -8.87429791460257     
 -0.295598974904841     
 -0.292955283015752     
   7.31865438868390     
  -8.75560182564637     
  -7.81504186180536     
   7.96989238100082     
 -0.296342158153007     
   5.36070881936808     
   8.45103416114940     
 -0.306593133088574     
 -0.299046893644630     
  -8.26591308279982     
   9.25302765970082     
   8.26735535827473     
   5.04223991492077     
 -0.304244609729486     
  -6.51296006265687     
   5.77539150570680     
  -10.2797927580520     
  -6.50531691976684     
   5.13334915265732     
   7.20397317102931     
   6.74276564776970     
  -7.35898422770863     
  -8.59184319302397     
   6.93838077915154     
 -0.299089213765460     
 -0.303379458648719     
  -5.65343066700872     
  -6.73277122316190     
 -0.306012668065484     
   6.13759134147645     
  -9.40150004004528     
  -8.63670352350063     
  -9.97263871398038     
   6.63389244215259     
  -8.59485948271555     
  -5.55277118396492     
  -9.77299601977425     
 -0.299561328267578     
  -9.83315604022653     
  -7.32009838183816     
 -0.306210159766123     
  -9.48558529578549     
  -1.74353175907866     
   6.44109990422772     
   6.19076197627467     
   5.00999673521626     
   6.44348193316281     
   4.50143052717861     
  -1.17397926615510     
   5.12559708506252     
  -1.58106834878615     
  -6.76810784953111     
  -8.14773477160706     
  -6.86289596022848     
   9.71726049667581     
 -0.274479462667110     
 -0.269688562133771     
   6.34223080172317     
   7.63042327896663     
   9.23783626676252     
   5.85219020511684     
 -0.270073019970285     
  -10.2844335004098     
   7.21197387857661     
 -0.276232795409478     
  -7.72043150942551     
  -9.62968524050184     
 -0.270408937093668     
  -5.65725662205815     
  -7.95140094500918     
 -0.265721049313811     
  -7.65048399632674     
   5.48987957044646     
 -0.262140604929659     
   8.16209026483522     
  -10.2793286838163     
 -0.257216321880791     
   8.30652726587183     
   6.78981121341004     
 -0.276953033189650     
   4.88578812884448     
   8.02568994067962     
 -0.263783632891717     
  -8.60073973863002     
   8.95481437866845     
  -10.2646523362870     
   7.35092808672013     
   5.72105119332879     
   8.32628767478188     
   5.02235286076368     
   6.77603701461703     
  -9.54086864061446     
  -10.2627960393439     
  -9.08313934652944     
  -6.95987277693340     
  -9.44755756387230     
  -6.10627814475297     
 -0.274601906992981     
   5.18549446145194     
 -0.269804653998670     
  -6.51785354664937     
   1.54134599722882     
  0.770906770135944     
 -0.270202155885796     
  0.410210353171645     
   9.72271336892025     
 -0.276369621987577     
  0.412887238133557     
   1.21790410579950     
 -0.270551771346578     
  -3.62393910154251     
   4.77417050079968     
 -0.265856228091064     
   9.33700307713208     
  -5.34167496214126     
 -0.262295141526957     
   8.96757795892413     
   8.98988313161953     
 -0.272794157874977     
  -9.98352760539648     
   1.18517604265973     
 -0.257347627093027     
   1.63057310487054     
  -9.95210213593857     
 -0.263907424404423     
  -9.96887088086660     
  -4.99166059762760     
  -3.52283997668818     
  -4.13549767851218     
  -9.80836956979944     
  -8.29969251901989     
   3.70978183472857     
  -3.80108010911310     
  -7.05567988474193     
  -5.52116240256482     
   9.19368828227104     
  -2.19593859206821     
  -9.99414040155940     
  -5.31493667696910     
 -0.301130866507396     
   6.56302051353860     
   6.59653532308139     
 -0.308589475922080     
  -9.56926861106414     
   4.88326503444415     
 -0.303580332805876     
   8.98946357141949     
   1.76760837791147     
  -6.84646176378799     
  0.574204773140426     
  -5.19521687991986     
   5.23309224897611     
  -9.50010784236909     
  -9.96999062101910     
   4.68481004132785     
   7.91606982190934     
   5.83201672152353     
  -9.98246048925317     
   7.87614760683863     
  -9.26056074768052     
 -0.298145849170527     
   6.35245779456268     
   7.78162788632341     
  -9.82446883004786     
  0.804549452578510     
  -8.70181140484370     
  -10.2618678908724     
  4.308993654542279E-002
   1.08788989931524     
 -0.304980524194438     
  -10.2788646095805     
  -1.27503427502913     
 -0.296335147291081     
   3.63524276798776     
  -4.01834253161416     
  -5.83378345679061     
   5.07346930149196     
  -3.73380339527226     
   9.73170480710442     
  -4.09734227850237     
   7.38030726133876     
 -7.267607453977755E-002
  -10.2651164105228     
  -4.12349024212301     
 -0.255824350592617     
 -0.249809289326362     
   2.57836479559126     
 -0.249677690625677     
  -9.64990749193148     
   6.74477092631034     
 -0.255608310782533     
   9.72050901632624     
   7.30379023160256     
 -0.250953253410607     
 -0.528216009606434     
  -9.90944814420397     
 -0.243952080590542     
   7.52440915873953     
  -8.07040877564344     
 -0.241334888860755     
   7.13459004252494     
   9.37478256485446     
 -0.243219663071850     
  -6.75271582377071     
  -5.82931165263707     
 -0.231565039428740     
  -7.14253493998530     
   9.73379314114812     
 -0.252823224070821     
   9.73425721538390     
   9.38760571550042     
 -0.257688322544394     
   1.27697836146860     
  -7.92217317241450     
   5.47653501659129     
  -10.2802568322878     
  -8.31199228862910     
   6.20671620686680     
 -0.868381829440675     
  -10.2807209065236     
   5.10571239599805     
  -1.54126940501474     
  -3.63447831418873     
  -7.53235405619990     
  -1.22219212261335     
  -5.84861351141968     
   5.19063606238331     
   1.25528745190994     
  -5.45626510548100     
  -2.27942380810665     
   5.09058138588750     
   6.13058076469954     
 -0.263775439780744     
  -6.48002616665299     
   3.02619211868372     
 -0.255970406717731     
  -10.0399409627757     
 -0.249948043403986     
 -0.249829842564573     
   4.22883032550073     
   9.04565892273187     
 -0.255765065598892     
   4.14406960264658     
   6.72531330893462     
   3.22676683250377     
  -10.2835053519382     
  -8.85004700807264     
 -0.251120029341604     
  -8.46022789185805     
  -5.95210259425980     
 -0.244109913817080     
  -5.64369529397532     
  -7.68058965942884     
 -0.241481128566854     
  -4.41230108053227     
  -10.2623319651082     
 -0.243393003148534     
   6.10765172245180     
   9.36819295332836     
 -0.231718830693144     
  -8.62418112316553     
   9.04504166561859     
 -0.253010498670481     
   6.01273687719733     
  -8.95834969364267     
 -0.257857855115123     
   4.82233169711260     
   5.68914311259158     
   3.45935171816590     
  -9.09163052105829     
   8.99095350215898     
   8.70384041833430     
   9.18063290422950     
   9.05861108978783     
  -9.23986612428724     
   9.37735252206341     
   8.30404739116874     
   3.75813307605054     
  -9.70188907655894     
  -10.2839694261740     
   1.26148957886319     
   9.46047671581111     
  -9.84935614364099     
 -0.263958394837461     
   9.48025373535426     
   8.89654894063671     
   6.98635443929599     
  -8.19989547298094     
   4.78020619389618     
  -9.53623104322810     
  -6.26816367487809     
   5.50836889144466     
 -0.322711053923316     
   5.04379657401106     
  0.857544886870465     
 -0.304828368855295     
  -6.12131319457046     
   5.57531357766655     
   5.96513269388115     
   7.06571319142389     
   5.62916356224392     
   9.40825912526588     
   9.71865271938314     
  -3.55799782679304     
  -1.16417300849594     
   3.24950797849472     
  0.228826456937130     
  -5.68858874904855     
   3.59939469392573     
  -3.66116850615378     
  -5.27614136243179     
 -0.848286032482538     
   2.60370373732627     
 -0.324958040492303     
   5.28274334450487     
  -9.21123015675495     
  -4.38955254563191     
  -1.90097029087564     
  -6.60541308759142     
 -0.244024762049601     
   9.13777204234042     
  -8.93713342273500     
 -0.243826935858016     
   4.86531388234871     
  -7.29077054321425     
 -0.314494131131021     
   4.94095346876391     
  0.310184428205438     
 -0.253030068415810     
  -3.06483759495091     
   8.83963610441778     
 -0.252802353636493     
  -6.90095142699965     
  -9.48144963727289     
   2.51789869219155     
   3.22163265064802     
  -5.64383453401345     
   5.22029566594393     
   3.39307718100991     
  -10.2637241878155     
   9.34863824326219     
  -3.95307300333402     
  -6.15283794836901     
  -3.24139218003608     
   1.84113300516846     
  -5.42910440209686     
 -0.661547057407253     
  -8.84678466178442     
  -9.82596249196160     
 -0.321385897845805     
   8.41464109565734     
  -7.80920392481064     
  -5.61647081301262     
   6.86136294193352     
   8.07792531348120     
 -0.310680065312218     
  -5.80796060973342     
  -4.46955167028214     
   2.57939759974780     
  -4.30897621595551     
   4.84367007960521     
 -0.325955357608937     
 -0.820672298002643     
   2.77682037242384     
   4.78892592567227     
 -0.164051534528838     
  -7.39347339062570     
   2.88384983164739     
  -7.11023604425874     
  -5.22742491200762     
 -0.230609461826735     
  -4.98943685293046     
  -1.23545559379021     
 -0.230427852011501     
  -10.2825772034667     
  3.512536368039029E-002
  -5.50379427428865     
   4.97920518892051     
   4.10124724309066     
 -0.318737297955925     
   2.32239869316318     
  -10.2821131292309     
 -0.333641761853702     
  -7.03997112146051     
   3.69999659285616     
  6.378509671438062E-002
  -5.45929357957663     
   5.22662182703740     
 -0.295436850924995     
   3.37316434498012     
  -3.37142233294204     
   1.79679979195257     
  -3.68198410028055     
   9.73843388350588     
   2.68307929276258     
   2.12008820740080     
  -5.79858656367820     
   4.45288161994254     
  -5.97307759134151     
   4.62811954372006     
 -0.340270652416317     
   4.27888730512880     
   2.97571156120911     
 -0.227055367859281     
  0.971634722893999     
  0.266181520227943     
 -0.227269946924371     
  -9.78857318578167     
   1.46479393923649     
   1.25661944142177     
   1.07603861186448     
   2.96526496399731     
   9.03112283275408     
   6.35495181009574     
  0.650019341359767     
   4.21286466428302     
  -3.48789146318583     
   4.75094083345394     
 -0.220416654957626     
   1.23698072893788     
   1.66263940558127     
 -0.220255225508278     
  -10.2816490549951     
   1.29205738694562     
 -0.336921660097168     
  -10.2665086332302     
  -7.42254635263930     
 -0.331973348767052     
   2.56795284561376     
  -7.72854738256609     
 -0.321824525119667     
  -8.74470077320172     
  -3.71889254827425     
   8.54563090415438     
   7.01213736281349     
  -2.61127220331456     
 -0.342247253978573     
   4.63538518172626     
  -8.04344315237054     
  -8.97443630178360     
  -7.73299916684207     
   3.15323149043135     
 -0.354266002298881     
  -7.35960941836929     
  -10.2730636817197     
  -9.01881795399377     
  -8.94712397903165     
  -7.42834906856264     
   4.60965015156857     
   2.56464641246305     
  -9.64356480755061     
 -0.327146098991505     
  -9.59776578289704     
   3.23177321792433     
  -7.33189178192857     
  -10.2655804847586     
  -8.38108652511739     
 -0.218828389941031     
 -0.207275882105992     
  -9.85764973664739     
  -9.02906094728636     
  -8.41749319593181     
   9.72004494209047     
 -0.207017921939469     
  -8.66142159019444     
  -8.55351759761349     
 -0.192684107591455     
  -8.91627872850615     
  -9.26946142750561     
  -9.02720507217041     
  -6.55633039810806     
  -9.34243234449690     
 -0.219012940937648     
  -5.23083509992448     
 -0.207444875778063     
  -9.33229286065435     
  -9.05637327003777     
  -9.23006236332562     
 -0.207217700345942     
  -8.91978909936517     
  -8.70529318491148     
 -0.192860437608588     
  -8.99420062289200     
  -8.35377420232204     
  -5.34123347764536     
  -8.89232279403741     
  -9.39698606725568     
 -0.310946712935130     
  -6.29050578761402     
  -1.18411301401783     
 -0.302145263550391     
 -0.787695127598116     
  -2.25339915036194     
  -1.50447748212032     
  -9.21605330862061     
 -0.853281320660478     
 -0.325991990150909     
  -4.59780257873456     
  -9.58143635174400     
 -0.315959292894373     
  -5.85628970694619     
  -8.64298435885731     
 -0.315623315882325     
  -8.77234793385870     
  -4.99142852567754     
  -5.74727528599743     
   4.86356797825611     
  -9.60519576501450     
   1.00151845186747     
   5.58464584072906     
  -8.66410525207495     
  -10.2721935425406     
  -9.00174862453501     
  -5.02877346227271     
   9.71818864514736     
  -9.81936881182903     
  -9.16566837045458     
  -4.63736407699271     
  -8.81780222355026     
 -0.897324547858634     
 -0.280609132934487     
   4.82441277471394     
  -3.30521172866131     
  -9.55564607243974     
   8.15581178793979     
  -9.28618216831807     
  -9.56493333980191     
  -4.02958034887428     
  -3.49817912942375     
 -0.283655116064628     
  -8.86472506304824     
   9.14975485954568     
  -7.89682145978311     
   1.22620882021287     
   9.36767838613346     
 -0.231705731320371     
   5.39439769022219     
  -8.73934348419603     
 -0.191661013429092     
  -8.01639514823837     
  -9.54529354402441     
 -0.176654599560426     
  -9.47486544841580     
   1.45134716099514     
 -0.198435295593891     
  -7.77844939094087     
  -9.13813141583465     
 -0.191865749696592     
  -3.83360378569625     
  -4.94762657696741     
 -0.176837842560039     
  -3.46069514786162     
  -5.32209097553218     
 -0.198672268029967     
  -8.97567004648024     
 -4.407622750702638E-002
  -9.59418945566787     
  -7.63782519143672     
  -10.2701632177893     
  -8.54972992400665     
  -8.69141757482624     
  -9.61947314547066     
 -0.325829328016581     
  -7.43725783489933     
  -4.23616839574413     
  -10.0005692650938     
  -8.62841714015038     
  -4.19335502708407     
  -8.51748220152781     
  -7.28427386976140     
  -8.88327427752294     
  -4.91028164036961     
  -8.71872989757757     
  -8.79486850241509     
  -4.55315903076525     
  -3.58488356306991     
  -5.19468330799975     
 -0.167990132290068     
  -5.06611839915853     
 -0.159700680186248     
 -0.157216762096976     
  -8.60951583537727     
  -8.70633902506776     
 -0.167562839386457     
  -8.37356000220212     
  -8.52694744953260     
 -0.156405548992994     
  -8.01352178548552     
  -9.24905775949888     
 -0.166173497738654     
  -8.03509573924033     
  0.376658614646043     
 -0.146793473278371     
  0.627611735052949     
  -8.92405200758681     
 -0.141739878064350     
   2.95356860109910     
  -6.31386705195970     
 -0.143048742356007     
  -5.30374318106950     
   2.00185890667627     
 -0.181552122490802     
  -8.63679292932334     
  -8.34862050832121     
 -0.181261973043127     
  -4.10702136554466     
   9.71772457091159     
  -8.99724400023855     
  -8.26261883285120     
  -8.73189128341885     
  -3.33594997469758     
  -8.59541268591805     
   4.37176727373624     
   9.03054834746637     
   3.26271740343039     
   4.00189058672069     
  -8.58210731586130     
   9.21758421667177     
  -3.98213412075158     
 -0.193267525566903     
  -8.96119616685037     
  -4.68686547309460     
 -0.135665297431059     
   2.37671630179436     
  -4.45680640727751     
 -0.123228432230277     
   4.70451911045326     
   1.47489585491951     
   3.51026462116405     
  -9.36400629825523     
  -6.28572677238599     
 -0.126077947245025     
  -7.65684910846360     
  -8.29012981552656     
 -0.114771512459136     
  -7.08489009147260     
   2.20106195111064     
 -0.118595401153340     
  -8.55456737064746     
  -8.32646187957142     
   1.82620455597790     
  -8.22962920445944     
  -4.72421040968883     
 -0.104945901106531     
 -0.396774092314290     
  -8.29918161770019     
 -0.104285497478560     
   3.69758528869207     
  -8.32704655456291     
 -0.103153082106604     
  -8.39176841582871     
   3.98762556844371     
  -3.72245276437353     
 -0.596595573869885     
   3.88516037490375     
 -9.793237532716198E-002
  -8.12281970749710     
  -8.27183088391036     
 -8.504877978613336E-002
   4.34767394361716     
   3.96494671164413     
 -9.434221683475402E-002
  -5.19026504382529     
   3.33123064029718     
  -3.02782778698045     
  -2.38178641887359     
  -4.33925803652114     
  -3.18919584076821     
   2.99752985933283     
   3.70612639475754     
   1.65055020539274     
  -7.97383432795792     
  -8.48448634509764     
 -7.841729496283287E-002
  -2.98455049712560     
  -4.34014527622578     
 -0.167780056215488     
 -0.159511163775452     
  -8.94259010495924     
 -0.157001017934491     
  -1.21428135793576     
  -10.2660445589944     
 -0.167324942097586     
  -2.19089827115936     
  -1.92873252400804     
 -0.156160755956947     
  -2.24842367857962     
   1.45785371807873     
 -0.165896946155810     
  -1.25837831232958     
  -4.37911441291058     
 -0.146565127652387     
  -2.89343964227807     
 -0.958373979870208     
 -0.141544821085534     
  -2.57047101978069     
 -0.609544150509203     
 -0.142785471431425     
  -1.55839918218831     
 -0.913341339096610     
 -0.181331254568555     
  -3.31690961720427     
  -1.81669007116100     
 -0.181007185729821     
  -3.90717879866103     
  -1.94840995977354     
   1.65959965837245     
  -1.99355100070084     
  -1.60340216147687     
  -1.30339654438857     
   1.62700151165505     
  -2.33823749791305     
  -9.51494397125189     
  -1.69340932913416     
  -1.90342498521373     
 -0.605427367905648     
  -2.93975446429076     
  -2.87877856344223     
 -0.192969625482553     
  -4.13568378306264     
  -2.29358801197311     
 -0.135442053554891     
  -2.12129200454176     
  -1.13728490531909     
 -0.123028599220399     
   4.68775015253170     
  -8.15168010438238     
  -2.59342194512841     
  -1.45470892119598     
  -1.64841066903143     
 -0.125848204284342     
  -8.26790560743127     
  -1.48758097888925     
 -0.114549716200539     
  -7.95321026558774     
  -8.34055554413765     
 -0.118342719560802     
  -7.90663206478592     
  -7.72157097015889     
  -8.97337216318057     
  -4.41395903724804     
  -7.88253819826391     
 -0.104710607303858     
  -8.21678975717471     
  -8.00776641858710     
 -0.104081598421635     
  -8.24440967821294     
 -0.268341307067810     
 -0.102875446448586     
  -2.68326863921236     
   4.44197327405380     
  -5.10977154175025     
  -6.72358786286474     
  -7.96158651211380     
 -9.770969306252197E-002
   4.38407426415812     
 -0.613357659949630     
 -8.484153031178969E-002
  -5.29613111649388     
  -7.99194783172305     
 -9.409796567990220E-002
  -7.94887052081646     
  -2.08025883966488     
  -5.14080826966378     
  -8.07896939780645     
   2.33094311324609     
  -9.13395180327036     
  -7.50155117606687     
  -8.66214527740155     
  -7.69094722997655     
 -0.421583624370804     
  -1.08830186438014     
 -7.815000710524894E-002
  -7.93521170497200     
   1.97655361961981     
  0.705260991998184     
  0.707434410123084     
  0.689543329112630     
  0.683267233993752     
   3.52949835091999     
 -0.796419999182972     
  0.730590835155996     
  -7.39533171608156     
  -7.65121371426095     
  0.705151131011640     
  0.689455315253996     
  0.707352294645712     
  0.683142481592583     
   3.82986153728438     
  -7.03043122940122     
  0.730522006983135     
  -7.36809867729544     
   3.72647713330133     
  -7.84297756382278     
  -1.30218630993597     
   4.65758705179936     
  -8.60573557032581     
  -5.37843305463511     
  -4.51795869030852     
   4.72504218097249     
  0.670596204189179     
   3.60361357222093     
  -8.05666969299379     
  -7.78586798612205     
  0.670690144029821     
  0.761951286278195     
 -0.935328974448007     
 -0.807974366846607     
  -6.67085978653789     
  -3.88344542294176     
  -8.30984346456295     
  -2.63921918641261     
  -7.10663761317192     
 -6.560137779949564E-002
  -8.01613082965019     
 -6.539144469914253E-002
   1.84975325294581     
   4.60992863296348     
  -8.46133658195057     
  0.546069347234097     
  -7.64197376660729     
  -1.94904387317173     
  -4.91772018857294     
 -0.302911174446313     
  -10.0038208080870     
  -9.78414050137137     
 -0.361691122341892     
  -9.33234272307555     
  -7.70579977962916     
  -3.28477571499510     
  -9.95515335250476     
  -9.63948205391338     
 -0.342747588424287     
  -9.43602900863331     
  -6.54386238653486     
  -1.32846938524299     
  -1.78029579551342     
   3.76675203504738     
   4.42087067088458     
  0.395215564817057     
 -0.341081602823186     
 -0.124551224581485     
   2.40026499523934     
   2.69997594920520     
 -0.127774138231025     
  -7.85141990892873     
  -3.32994965196388     
 -5.561915722527416E-002
  -9.07212250600814     
 -4.593634556819080E-002
 -5.536650796278216E-002
 -4.572432216231194E-002
   9.20746574693455     
 -0.308569010452323     
   3.65853897032705     
  -9.57495752940243     
 -3.664312527193390E-002
   6.44061708401439     
 -2.613936111632551E-002
 -3.638548935754121E-002
 -2.592582964264734E-002
   4.12430373993704     
  -5.06476254788051     
  -8.68371923115746     
   5.81689709065220     
  -3.23927827057358     
  -9.36924064792416     
  -7.05768266672290     
 -1.657483467470426E-002
  -5.74870984653597     
 -6.219603647285114E-003
 -1.631592142858191E-002
 -6.005077987168632E-003
  -7.61629071545248     
  0.663301051777101     
  0.650768743778143     
  -4.06898887642447     
  0.663439338323205     
 -0.824378789287386     
  0.650868771989408     
  0.698379733398059     
   3.94986842117680     
  -1.86074343136242     
  0.698547415074378     
  -7.62387601958286     
  -7.88216261779943     
  3.587833852870699E-003
  -7.56885434138585     
  1.380176256225346E-002
  3.847513501438348E-003
  1.401679765052981E-002
  -6.25175616136784     
  2.383376693851090E-002
  -4.56900843837897     
  3.392443846108301E-002
  2.409373894407404E-002
  3.413952477108210E-002
   4.54133971886436     
  4.414774084696634E-002
   2.22461064664191     
  5.410568910272747E-002
  4.440756662308409E-002
  5.432041539078752E-002
  -7.67848745720677     
  -4.76155534654110     
  -8.85026982768458     
  -7.59224568095553     
  -1.47674246001355     
   9.72764415760189     
   4.78532407148207     
 -0.164260178036608     
  -1.42134009424678     
  -2.46496187113907     
 -0.163995525757200     
  -5.10346333507075     
  1.047196494448743E-003
  6.451824703863300E-002
  -7.68179821582786     
  7.436682097951196E-002
  6.477752263607629E-002
  7.458080209971961E-002
  -7.27618205401838     
  -2.42344755658621     
  -7.54971735439848     
   9.73657758656278     
  -6.64720822197021     
   4.27928985757548     
   3.02111651919223     
 -8.252142828135228E-002
  -7.93419103134386     
   2.57684570451412     
 -9.057530435660821E-002
  -4.02719437450782     
  -7.00316142574467     
  8.494032908772076E-002
  -4.83624519679524     
  9.467443854752454E-002
  8.519867902116937E-002
  9.488731403501290E-002
  -4.79890028221039     
  0.105410370052872     
  -6.69278222424283     
  0.115041602781012     
  0.105667440848391     
  0.115253035253651     
  -6.62176644795154     
  0.125919934700692     
  -6.64872797682430     
  0.135453614299555     
  0.126175392123122     
  0.135663270629498     
  -6.20235272577472     
   3.08212585828688     
  -3.75648886508576     
  -8.20258212175616     
  0.676774407087890     
   3.35213122830435     
  -7.98881850710882     
  -9.92570622079968     
  -4.87359001099024     
  -3.45436627468531     
  0.658103944045830     
   3.31795071613238     
  -3.15224392082105     
  0.677909707022840     
  -3.49724327803352     
  -3.11077229697484     
  0.643919122186815     
  -7.34332433972518     
  -3.84308676782056     
   4.07712529346568     
  -7.53102502636891     
  -1.18285061793423     
  0.676940581011977     
   3.74940545398586     
   3.48361030194794     
  -4.49433709370099     
  -3.93397492189017     
  -7.04472022510312     
  0.658296006689258     
  -7.23461340893356     
   3.85042063714626     
  0.678110434530741     
  -6.94245135377112     
  -7.24320444484698     
  0.644068403425417     
  -7.58308703996048     
   3.56780814931542     
  -6.88031766055477     
   4.67331785815566     
  0.630575317211006     
   2.87157760956046     
  0.630469195421131     
   3.01154297929635     
  0.146720365327855     
  0.156106003187625     
  -2.20436303874875     
  0.146466837170222     
  -3.80117825540761     
  0.155898413917131     
  0.167291317702168     
  0.176591109092840     
   3.11555315551789     
  0.167040014600238     
  -6.86664856780759     
  0.176385892584947     
  0.187644339061427     
  -4.30094546052924     
  0.196911133769778     
  0.187893145602378     
  0.197113736763651     
  -6.01339829101362     