 TITLE="euler solver on unstructured grid" 
 VARIABLES= "X" "Y"  "P" "Rou" "U"  "V"  "nuT"
 ZONE NODES=       11173  ELEMENTS=       18178  ZONETYPE=FEQUADRILATERAL
 DATAPACKING=BLOCK
 VARLOCATION=([3-7]=CELLCENTERED)
 -0.307124673322646     
 -0.302210462693160     
 -0.302592087520691     
 -0.306728453031543     
  -7.61361518511125     
  -8.88173669115910     
 -0.301043825369102     
   9.21165266796476     
   9.24334847380430     
 -0.312158201490208     
   8.53463535514749     
  -9.69259343822645     
 -0.309824113807257     
   8.63432176565969     
   8.64416988130344     
   5.43303269385619     
  -9.47992914628959     
  -10.2770947219218     
 -0.317466288313609     
  -9.48825174596975     
   9.15953193730584     
 -0.314027585447864     
   9.72143530073880     
  -9.87722583470784     
 -0.318096342698555     
  -9.17353419377923     
   9.08675832753216     
 -0.311492069719325     
   9.24145375925824     
  -9.11643988981411     
 -0.307273736117811     
   6.10836550031503     
  -6.61751275884585     
   8.43235174857734     
  -6.57834597107800     
  -7.27846372346022     
 -0.302217483530278     
  -6.08376640146760     
   8.59954816434773     
 -0.311672702881067     
   5.77452579700560     
  -8.10250828869944     
   6.85748017173665     
   5.54473432567575     
   6.13298051516961     
 -0.307169436675491     
   5.30711944892799     
  -7.60698769306452     
 -0.314111170132197     
   5.71010866858691     
  -6.56998309800667     
   6.70750701939387     
   6.25351224999183     
   8.65502434459455     
 -0.306647383651549     
   9.12287766019302     
  -6.18660277104550     
 -0.311488008528299     
   7.50485573993453     
  -9.22862660007819     
 -0.301057934186767     
  -6.18744854865860     
  -5.84698869047883     
  -9.24806332451856     
   7.02957726204468     
  -8.46474401019841     
   6.17195182035233     
   8.86949662577386     
  -5.89626120218284     
  -7.05843871774326     
  -7.02680793365566     
  -9.59439715317547     
 -0.285475978914456     
 -0.284763430473141     
 -0.280131078948776     
 -0.290877468752375     
  -7.61582186414199     
  -6.95166554946649     
 -0.289739910317275     
  -8.10661957380481     
  -7.07132020734279     
 -0.286024684825294     
  -9.05613722554755     
  -6.73012208984403     
 -0.291472535117112     
  -8.59224929468258     
  -9.20763403427536     
 -0.295390390592471     
   9.33122592764022     
  -9.82136500820496     
   7.90828064558236     
   6.41369415671723     
   5.85822743093355     
 -0.299255391279835     
   8.32978968980323     
   5.89669924069999     
 -0.286335965884781     
  -9.71583945374694     
  -8.65128387191962     
 -0.281829822476128     
  -8.16052083656151     
   8.22503617564035     
 -0.279748481605962     
  -8.70547198599028     
   8.07844402362174     
 -0.275155134599278     
   9.31580324086552     
   8.56354235846188     
   8.89654961825849     
   7.64772332075131     
   6.56030983169617     
   4.99093121999611     
  -9.86423396508448     
  -7.67001761493186     
  -6.07152716762999     
  -8.18477414559472     
  -7.59955943350769     
 -0.289050167529495     
  -8.21467657414768     
   7.38212931074820     
 -0.285424239524360     
 -0.280081335075132     
 -0.284718360044071     
 -0.290829528065961     
  -7.81035301095943     
  -8.90894769944760     
 -0.289685011908230     
  -7.43509501101956     
   7.93184296708033     
 -0.285965678205333     
  -7.31730026797230     
   7.84824870667214     
 -0.291411368081164     
   8.08915413532373     
   7.35453034661161     
 -0.287324255487484     
  -7.57286826868938     
   5.65744695914284     
 -0.296926208358737     
   7.26414451249950     
   7.50113100590167     
  -9.03386297667227     
   5.39141973255678     
  -8.30648942678675     
 -0.298561617942344     
   7.39045545604771     
   5.00474908865180     
 -0.281774664641522     
  -8.40000479262167     
   7.67678803230064     
   6.11452722460841     
  -8.06301253141184     
   9.24747925585260     
 -0.275101100615661     
   7.79869272838509     
   8.65736588054106     
 -0.279687510243870     
   8.01797268605112     
   7.28262229516082     
   6.92379320027440     
   5.28609551072226     
   6.77724230205226     
  -9.24385916262015     
  -7.17917894602922     
  -7.12518021706932     
 -0.289010250260772     
  -9.71478013890707     
  -5.72554528900114     
 -0.295739278649194     
   6.85152316198337     
 -0.292904122158887     
  -7.90371423712575     
  -6.38546052483626     
  -5.97995048461977     
 -0.296300416190624     
  -5.46674857444065     
  -8.87799414826976     
 -0.295580372504458     
 -0.292938335464438     
   7.32410168096161     
  -8.75964370579349     
  -7.81109302724768     
   7.96613465277009     
 -0.296328351015388     
   5.35649881901035     
   8.45628331732605     
 -0.306603005940295     
 -0.299057631548650     
  -8.26974881323999     
   9.25827403168256     
   8.27096277034779     
   5.04780268049146     
 -0.304257606532269     
  -6.51758736254366     
   5.77035045239385     
  -10.2763985407179     
  -6.51100605038946     
   5.12828551689567     
   7.20771480081130     
   6.74590828928533     
  -7.35561094659210     
  -8.58706076593506     
   6.93468281102808     
 -0.299078793732339     
 -0.303366373957529     
  -5.64923679230926     
  -6.72923266591335     
 -0.306001938538715     
   6.14069568281676     
  -9.40432639641258     
  -8.63153119359132     
  -9.97541869544569     
   6.63047084077795     
  -8.58924140614203     
  -5.55793739850900     
  -9.77608497848736     
 -0.299545518332799     
  -9.83716850878221     
  -7.31635144358838     
 -0.306192022394765     
  -9.47991499324207     
  -1.74673112422381     
   6.44443194328062     
   6.18763266294254     
   5.01348223924082     
   6.43972346833130     
   4.50521476524678     
  -1.17725841478886     
   5.12011858182546     
  -1.58452433344643     
  -6.76411434836351     
  -8.14274035196869     
  -6.85974021277607     
   9.72213148194269     
 -0.274510216577684     
 -0.269717725540716     
   6.34646977265943     
   7.63391205686780     
   9.23425609875991     
   5.85567862600921     
 -0.270105444270443     
  -10.2787191447309     
   7.21700347062120     
 -0.276267145457924     
  -7.72441709317402     
  -9.62373852278518     
 -0.270444785816698     
  -5.66285222817055     
  -7.94820179898060     
 -0.265754981866626     
  -7.64519601949063     
   5.49304255225051     
 -0.262179374554246     
   8.15873108991458     
  -10.2761664803166     
 -0.257249281618779     
   8.30348258336230     
   6.78668322592412     
 -0.276992608267817     
   4.88258948614723     
   8.02890150967774     
 -0.263814717881417     
  -8.59739830095060     
   8.95158406923989     
  -10.2688275702142     
   7.35408446789116     
   5.71539285271381     
   8.32182214174832     
   5.02708955556101     
   6.77071938106496     
  -9.53961325617298     
  -10.2678993286090     
  -9.08005808325177     
  -6.95507527819455     
  -9.44656313617586     
  -6.10242941423573     
 -0.274571444883864     
   5.17954538193352     
 -0.269775777297696     
  -6.52282366176348     
   1.54707032282281     
  0.765166169007094     
 -0.270170018707171     
  0.404258735896635     
   9.72485819164496     
 -0.276335565611800     
  0.407143300262061     
   1.22346266438436     
 -0.270516210109396     
  -3.62973602657299     
   4.77037562735315     
 -0.265822578037406     
   9.33764634195595     
  -5.33572596562273     
 -0.262256650606264     
   8.96845269105788     
   8.98862314203195     
 -0.272754935243414     
  -9.98327399288075     
   1.18844003926967     
 -0.257314940812707     
   1.63370313727922     
  -9.95101993979329     
 -0.263876619848605     
  -9.96750022133167     
  -4.98590485525923     
  -3.52009400902328     
  -4.14118263598138     
  -9.80783251971758     
  -8.30317224470369     
   3.70409628658766     
  -3.80659164350631     
  -7.05870285558156     
  -5.51553510392904     
   9.19578495610472     
  -2.19924429335960     
  -9.99475653256999     
  -5.31288789724539     
 -0.301147819876566     
   6.56665368538835     
   6.60249066399140     
 -0.308605723229537     
  -9.56774749961283     
   4.88703201646968     
 -0.303602637271277     
   8.98645887249442     
   1.76184188628203     
  -6.84206470692304     
  0.579728702163621     
  -5.19350884173828     
   5.23752467543848     
  -9.50118797837450     
  -9.96832021555615     
   4.67909915740274     
   7.91047902663516     
   5.82848119801649     
  -9.98364515829856     
   7.87089045023604     
  -9.26448671598131     
 -0.298123069359995     
   6.34738289153084     
   7.78546386481731     
  -9.82988488745280     
  0.799169633351965     
  -8.70776786457263     
  -10.2674352078064     
  3.733906608591151E-002
   1.08234409566872     
 -0.304954758971417     
  -10.2759344199153     
  -1.27155669586548     
 -0.296358729089440     
   3.63312477095928     
  -4.01991310885361     
  -5.83859987211795     
   5.07341464194538     
  -3.72798842033319     
   9.72935436185308     
  -4.09169340810157     
   7.37692793206930     
 -7.591116253231839E-002
  -10.2690596306155     
  -4.11754059821761     
 -0.255860996952961     
 -0.249844107159453     
   2.57275766665574     
 -0.249715857521612     
  -9.64694024525662     
   6.73882267544714     
 -0.255647631435334     
   9.72375590475176     
   7.29816042610016     
 -0.250995076619478     
 -0.522475131345794     
  -9.90986784516634     
 -0.243991664624584     
   7.51846132220395     
  -8.06446122927156     
 -0.241371573411571     
   7.12864199882555     
   9.37778144069869     
 -0.243263123044313     
  -6.75867124768061     
  -5.83274749759062     
 -0.231603606489654     
  -7.14849057105901     
   9.73039863365027     
 -0.252870172431847     
   9.73063069405157     
   9.38622096078771     
 -0.257730838424034     
   1.27999840762867     
  -7.92812921781581     
   5.47336672767676     
  -10.2766306011192     
  -8.31794854119423     
   6.21267134061299     
 -0.862839000143369     
  -10.2768626615205     
   5.10221922697740     
  -1.54693065691110     
  -3.63937102750410     
  -7.53830989443741     
  -1.21892042316867     
  -5.84563866636346     
   5.18987872821338     
   1.24954634961176     
  -5.45942814394226     
  -2.27594016163815     
   5.09335838344421     
   6.12525300560098     
 -0.263821314183645     
  -6.47499606709877     
   3.02429025778597     
 -0.255934032343407     
  -10.0377888567793     
 -0.249913491159798     
 -0.249791941124787     
   4.23069300688040     
   9.04364774371192     
 -0.255726016708174     
   4.14568198080000     
   6.72096683412198     
   3.22853835026993     
  -10.2782550239283     
  -8.84409987602838     
 -0.251078472952414     
  -8.45428055264997     
  -5.95223457807369     
 -0.244070589156619     
  -5.64279034523768     
  -7.67464190589316     
 -0.241444700601720     
  -4.41407448097476     
  -10.2676672682077     
 -0.243349801779427     
   6.10957992282175     
   9.36912997142095     
 -0.231680509837831     
  -8.62606597097546     
   9.04650072190674     
 -0.252963819127568     
   6.01446685279160     
  -8.96033848545145     
 -0.257815613215141     
   4.82178234713078     
   5.69095989383474     
   3.46136564786610     
  -9.09758718795103     
   8.98834772464287     
   8.70316473485365     
   9.17825438909122     
   9.05793579663573     
  -9.23391919940678     
   9.37519759433353     
   8.29809996896076     
   3.75993533948736     
  -9.69995320208194     
  -10.2784870843296     
   1.26587736707571     
   9.46198389985472     
  -9.85077434423182     
 -0.263912800891175     
   9.47766475611157     
   8.89606229605622     
   6.99230998736980     
  -8.19917619507722     
   4.78469252708808     
  -9.53753658444909     
  -6.26389421076057     
   5.50736479529570     
 -0.322704003382309     
   5.04275336457815     
  0.863292173336300     
 -0.304857223681795     
  -6.11536461237955     
   5.56936470531194     
   5.95918402869034     
   7.07039636250246     
   5.63144553490414     
   9.41090566534511     
   9.72282766314658     
  -3.55968703747343     
  -1.15877653751595     
   3.24743355924784     
  0.224398367989976     
  -5.68941489660274     
   3.59598528352934     
  -3.66365059295317     
  -5.27209567981930     
 -0.851741858199851     
   2.60916767895497     
 -0.324964273541815     
   5.28565258039020     
  -9.21697874340574     
  -4.39206130807280     
  -1.89751850238471     
  -6.60670464725307     
 -0.243975440095258     
   9.13613760690022     
  -8.93889514243238     
 -0.243876517074182     
   4.86086158791455     
  -7.28482258251476     
 -0.314511660713037     
   4.94065110476046     
  0.315877165493279     
 -0.252973279842114     
  -3.05929955645346     
   8.83819152288855     
 -0.252859411027610     
  -6.89500325913635     
  -9.48740651132944     
   2.52361995055675     
   3.21821142782744     
  -5.64195644136931     
   5.21981238257834     
   3.39882506278263     
  -10.2683634494116     
   9.34855535299052     
  -3.95487498577067     
  -6.15185704122298     
  -3.24381777519187     
   1.84643815600944     
  -5.43357406038056     
 -0.664752618049657     
  -8.85012146942256     
  -9.82685147661397     
 -0.321370994686325     
   8.41766782662955     
  -7.80352517945654     
  -5.61282405766609     
   6.85639670616863     
   8.08088143758438     
 -0.310714186402978     
  -5.80731670801570     
  -4.46707546419816     
   2.58103256767829     
  -4.30668937677217     
   4.83883129426264     
 -0.325970856404942     
 -0.817255638421464     
   2.77185308230108     
   4.78371292378474     
 -0.168966357426614     
  -7.39040828891823     
   2.88176087907331     
  -7.11584890465614     
  -5.23014640505753     
 -0.230564186434617     
  -4.99230837382575     
  -1.23899101280627     
 -0.230473372415320     
  -10.2777909031257     
  3.048234385828006E-002
  -5.50781962678195     
   4.98238235498274     
   4.10374357101223     
 -0.318761604567926     
   2.32416395158638     
  -10.2775588427244     
 -0.333632265096009     
  -7.04268042413997     
   3.70572729717783     
  5.834569396472315E-002
  -5.46300159589663     
   5.22682601374228     
 -0.295478392817187     
   3.37872400350143     
  -3.37595868002487     
   1.79130431728363     
  -3.68665115478726     
   9.73271923766324     
   2.68491471879665     
   2.11454365601175     
  -5.79591055502423     
   4.45696181532063     
  -5.97903260092380     
   4.63378410688064     
 -0.340277274797964     
   4.28435934386275     
   2.97093352407554     
 -0.227109127965004     
  0.967097116784222     
  0.261352646128671     
 -0.227216428263353     
  -9.78325455057356     
   1.46049393683389     
   1.26123273395285     
   1.07174049729240     
   2.96847271153514     
   9.03393357659307     
   6.34900335206874     
  0.645636751181771     
   4.21863660962699     
  -3.48464490733749     
   4.75518713416464     
 -0.220376418739278     
   1.23290824452941     
   1.66709168819410     
 -0.220295695915408     
  -10.2773267823231     
   1.28752751522889     
 -0.336905127790453     
  -10.2697558118194     
  -7.41972445391353     
 -0.331971933492167     
   2.57149233372961     
  -7.73149873961315     
 -0.321869603466731     
  -8.74772892073727     
  -3.72333846631755     
   8.55158728088342     
   7.01555671010652     
  -2.61701185736292     
 -0.342271073949377     
   4.64072555773163     
  -8.04087204330755     
  -8.97224125604179     
  -7.73030265318399     
   3.14825633783773     
 -0.354254668509220     
  -7.36246048571774     
  -10.2730336649423     
  -9.02148444349616     
  -8.94515160101202     
  -7.43137806514641     
   4.61477649554896     
   2.56841682258213     
  -9.64617217095371     
 -0.327122628692734     
  -9.59782863094449     
   3.23517174079586     
  -7.33286874989027     
  -10.2692916910168     
  -8.37841810277260     
 -0.218874639402827     
 -0.207318236483371     
  -9.85762381324716     
  -9.02642056610020     
  -8.41657888824123     
   9.72352384435047     
 -0.207067971599278     
  -8.66098331562623     
  -8.55284773792270     
 -0.192728288118420     
  -8.91567659741637     
  -9.27133187162485     
  -9.02681619162730     
  -6.55936966992262     
  -9.34453363022159     
 -0.218966924160379     
  -5.22658350965402     
 -0.207402741798112     
  -9.33173439415139     
  -9.05351022112942     
  -9.22843844659492     
 -0.207167870825743     
  -8.91803977757415     
  -8.70808229306610     
 -0.192816461973769     
  -8.99440209996634     
  -8.35132844769943     
  -5.33677968980081     
  -8.89079654932263     
  -9.39721811476115     
 -0.310914012236947     
  -6.28932409442002     
  -1.18990860075494     
 -0.302105668232527     
 -0.782426311635632     
  -2.25913504304275     
  -1.49897915246740     
  -9.21668128679553     
 -0.858919225901642     
 -0.325955983361032     
  -4.59567029529874     
  -9.58212996070660     
 -0.315930666838274     
  -5.85504188298158     
  -8.64510054974133     
 -0.315601939559134     
  -8.77212290983717     
  -4.99617135746766     
  -5.74266541907730     
   4.86372763321121     
  -9.60716992680182     
  0.996377845248636     
   5.57934629297930     
  -8.66178485189274     
  -10.2725985516964     
  -8.99933091107102     
  -5.03329414116896     
   9.72259560274528     
  -9.81698804421977     
  -9.16691554068191     
  -4.64220551608701     
  -8.81901038601341     
 -0.902003797433518     
 -0.280659080720206     
   4.82733163677910     
  -3.30796480508910     
  -9.55492326735248     
   8.16176795750502     
  -9.28762725967202     
  -9.56646202283227     
  -4.03415626522304     
  -3.50038135056846     
 -0.283608107427441     
  -8.86342191625735     
   9.14945389513387     
  -7.89687473523977     
   1.22087760230745     
   9.36716034081359     
 -0.237252849554555     
   5.39280019504575     
  -8.73970881779280     
 -0.191712294269893     
  -8.01605611317003     
  -9.54518129023098     
 -0.176700499642777     
  -9.47452729747825     
   1.44621518983501     
 -0.198494638276825     
  -7.77551417311588     
  -9.13795578583823     
 -0.191814672675616     
  -3.83046124627108     
  -4.95259523003126     
 -0.176792130336202     
  -3.46624877910577     
  -5.32700302040758     
 -0.198613136384181     
  -8.97789077177736     
 -3.826245680990467E-002
  -9.59595572500851     
  -7.63963907069341     
  -10.2715832874558     
  -8.55112050835588     
  -8.68887450692185     
  -9.61730073867269     
 -0.325862136818923     
  -7.43988331575007     
  -4.24133139088374     
  -10.0030529366303     
  -8.62856922319813     
  -4.19876130366560     
  -8.51742102722981     
  -7.28670539129679     
  -8.88326250404810     
  -4.91547244632734     
  -8.71596416195101     
  -8.79405180627662     
  -4.55844758002713     
  -3.59000149031118     
  -5.20019362872580     
 -0.167937707761501     
  -5.07041692516061     
 -0.159653390658022     
 -0.157162914961762     
  -8.60764110852595     
  -8.70729471628202     
 -0.167503460017765     
  -8.37387594177215     
  -8.52574145077684     
 -0.156344439929279     
  -8.01588748463665     
  -9.24909538004915     
 -0.166104455017528     
  -8.03768432049409     
  0.371372674012153     
 -0.146736470550744     
  0.622456141377702     
  -8.92302610132411     
 -0.141691193986625     
   2.94840415690404     
  -6.31087949399524     
 -0.142983007180498     
  -5.30841480830532     
   1.99652148210431     
 -0.181497007475500     
  -8.63469519686331     
  -8.35108647092276     
 -0.181198378867749     
  -4.11115314843591     
   9.72236354234398     
  -8.99968760763830     
  -8.26272150957891     
  -8.72888547896128     
  -3.33025037538496     
  -8.59615512658480     
   4.36796353493044     
   9.03066723696317     
   3.25709313486000     
   4.00699492562649     
  -8.58045561546637     
   9.21927056157379     
  -3.98693667147246     
 -0.193193160649008     
  -8.96198800154496     
  -4.69147803647784     
 -0.135609564100350     
   2.37137071881013     
  -4.45493706045248     
 -0.123178544425684     
   4.70943810184359     
   1.47015031534590     
   3.50486368968135     
  -9.36633046608256     
  -6.28296286293880     
 -0.126020584209434     
  -7.65889166206137     
  -8.29191177873528     
 -0.114716129893186     
  -7.08216551933445     
   2.19591366312579     
 -0.118532300052634     
  -8.55313871755648     
  -8.32423879267099     
   1.82106442640537     
  -8.23032225109811     
  -4.72860082017819     
 -0.104887139267892     
 -0.401404380618883     
  -8.29718135481024     
 -0.104234583196173     
   3.70255810769980     
  -8.32928963506182     
 -0.103083734902291     
  -8.39468014263555     
   3.99317230918240     
  -3.72442201793055     
 -0.601036878617931     
   3.87975194099939     
 -9.787676233277219E-002
  -8.11998018405231     
  -8.27005359685686     
 -8.499701775947051E-002
   4.35267613736904     
   3.97027674427226     
 -9.428121024521584E-002
  -5.19537867381358     
   3.32605841696714     
  -3.03245376197746     
  -2.38636958825330     
  -4.34396553882870     
  -3.19464365887667     
   3.00294325406257     
   3.70094666900702     
   1.64560737081967     
  -7.97574737078998     
  -8.48501553521605     
 -7.835052130631361E-002
  -2.98939952336418     
  -4.34291956298704     
 -0.167832659184330     
 -0.159558622944257     
  -8.94406029768709     
 -0.157055032056261     
  -1.21979805282697     
  -10.2695237514181     
 -0.167384499437610     
  -2.19643543626868     
  -1.93450748952353     
 -0.156222031129564     
  -2.25367315795208     
   1.45231995825452     
 -0.165966165351034     
  -1.26366920294789     
  -4.38359755187062     
 -0.146622286281256     
  -2.89873537252068     
 -0.963530890612643     
 -0.141593655710870     
  -2.57588025263424     
 -0.614559874460434     
 -0.142851358509448     
  -1.56382404601257     
 -0.918719898573148     
 -0.181386562433050     
  -3.31884542228111     
  -1.82221791406596     
 -0.181070972427974     
  -3.90940185851022     
  -1.95352548485649     
   1.65508410855251     
  -1.99844469564721     
  -1.60860537456153     
  -1.30846578544815     
   1.62167224549544     
  -2.34304299237872     
  -9.51322146994423     
  -1.69816876079609     
  -1.90876216280985     
 -0.610236666301024     
  -2.94482674229699     
  -2.88430434029699     
 -0.193044195660669     
  -4.13768730432658     
  -2.29861565407810     
 -0.135497930961733     
  -2.12552110563629     
  -1.14155574772607     
 -0.123078617894777     
   4.68990764286630     
  -8.15156952620267     
  -2.59858372332602     
  -1.45889333779487     
  -1.65339223382381     
 -0.125905701202491     
  -8.26945795833169     
  -1.49154702231781     
 -0.114605220635984     
  -7.95489416509490     
  -8.34146184132405     
 -0.118405946578891     
  -7.90517505343012     
  -7.72428217006487     
  -8.97624148209552     
  -4.41822091041719     
  -7.88380809020258     
 -0.104769480561457     
  -8.21545825211892     
  -8.00803295444703     
 -0.104132623437741     
  -8.24285551882194     
 -0.273673557136822     
 -0.102944903143820     
  -2.68798464481932     
   4.44629577974909     
  -5.11342198589435     
  -6.72073356282741     
  -7.95968379469018     
 -9.776541002809692E-002
   4.38884604111009     
 -0.618602240368213     
 -8.489338262423325E-002
  -5.29959598833055     
  -7.99409064877154     
 -9.415907241328607E-002
  -7.94974659469636     
  -2.08470937675224     
  -5.14466248987646     
  -8.08006622973610     
   2.33587591452741     
  -9.13316893994272     
  -7.50074660381561     
  -8.66448862135088     
  -7.69057007859812     
 -0.425827492348329     
  -1.09236142586358     
 -7.821686396722645E-002
  -7.93427371688446     
   1.98137800817383     
  0.705233904279203     
  0.707414259247780     
  0.689521694280451     
  0.683236412102453     
   3.52451561211038     
 -0.800672313989849     
  0.730574018083179     
  -7.39273251525480     
  -7.64918535736106     
  0.705178968274015     
  0.689477682935326     
  0.707373197389219     
  0.683174029642824     
   3.83231077163539     
  -7.02815203187438     
  0.730539600543520     
  -7.36572216693621     
   3.72916387807285     
  -7.84664601529261     
  -1.30702090266658     
   4.66227701663571     
  -8.60738488505290     
  -5.38266037608205     
  -4.51217203322615     
   4.72079968343103     
  0.670620043196521     
   3.60600591476544     
  -8.05948115635020     
  -7.78570800100216     
  0.670667017829966     
  0.757013653313249     
 -0.940256164515457     
 -0.813926631508500     
  -6.66845088922883     
  -3.88869970382557     
  -8.31185567097117     
  -2.64415788994071     
  -7.10373488311449     
 -6.554893459789418E-002
  -8.01378238830941     
 -6.544395751501003E-002
   1.84499955496000     
   4.60450903173931     
  -8.46247949378624     
  0.541435140156341     
  -7.64219090378860     
  -1.95249238695560     
  -4.92315110276069     
 -0.302963270261040     
  -10.0054656770337     
  -9.78635124626543     
 -0.361700537097161     
  -9.33488659392572     
  -7.70332598384825     
  -3.28975889067375     
  -9.95435805369999     
  -9.64192883398044     
 -0.342720894855472     
  -9.43349170371279     
  -6.54391518378942     
  -1.33307554397345     
  -1.78461316481621     
   3.77126924783571     
   4.42318505078526     
  0.389664486456305     
 -0.346205062956552     
 -0.124633866361789     
   2.39530584384166     
   2.70523001816034     
 -0.127692803994058     
  -7.85083870902466     
  -3.33470789336520     
 -5.555603073845083E-002
  -9.07312759125024     
 -4.588336939138887E-002
 -5.542969343135334E-002
 -4.577734705086760E-002
   9.20782067864532     
 -0.308517431988694     
   3.66374027576167     
  -9.57540977527433     
 -3.657874216136346E-002
   6.43492891463786     
 -2.608599743917936E-002
 -3.644991127812666E-002
 -2.597922098909607E-002
   4.11988946334898     
  -5.07046607478708     
  -8.68628545720943     
   5.82285201723459     
  -3.24448525989095     
  -9.37008550065064     
  -7.05518078615911     
 -1.651012159789834E-002
  -5.75164570754463     
 -6.165980862134422E-003
 -1.638065198471076E-002
 -6.058707268951914E-003
  -7.61787655125843     
  0.663335972483212     
  0.650794094190006     
  -4.07334276910547     
  0.663405122694339     
 -0.828237659258732     
  0.650844113314227     
  0.698422020799197     
   3.95214384420568     
  -1.86461834550552     
  0.698505870050237     
  -7.62207053281773     
  -7.88095595334066     
  3.652749226428157E-003
  -7.56749447814693     
  1.385552333186938E-002
  3.782602079290127E-003
  1.396305166469071E-002
  -6.25438897206971     
  2.389876615347309E-002
  -4.57237955628253     
  3.397822272876721E-002
  2.402876519950086E-002
  3.408577667501980E-002
   4.53731655542440     
  4.421271430376814E-002
   2.21984879024340     
  5.415939409890034E-002
  4.434264022773663E-002
  5.426676801612048E-002
  -7.67623632914803     
  -4.76572360413630     
  -8.85084841183165     
  -7.59360410420323     
  -1.48045820393616     
   9.72732383337199     
   4.78769751151237     
 -0.164355001598735     
  -1.42573624480023     
  -2.46910138172924     
 -0.163910424139530     
  -5.10753970817829     
 -4.124848699642658E-003
  6.458309379003650E-002
  -7.68287801041931     
  7.442035046970628E-002
  6.471274459706435E-002
  7.452735176561386E-002
  -7.27634979756824     
  -2.42780895849863     
  -7.54864757789433     
   9.73179099605806     
  -6.64457226329562     
   4.27429211393409     
   3.02686005870850     
 -8.261239025320886E-002
  -7.93251123467454     
   2.57168923876739     
 -9.048434572742087E-002
  -4.02983233872096     
  -7.00110490383771     
  8.500495529912475E-002
  -4.83996914858555     
  9.472770244917454E-002
  8.513414322771309E-002
  9.483415087325096E-002
  -4.80284638691154     
  0.105474687390053     
  -6.69060034699859     
  0.115094516788604     
  0.105603235685500     
  0.115200243632858     
  -6.62443586011623     
  0.125983859634161     
  -6.65098308489346     
  0.135506095163230     
  0.126111601162117     
  0.135610933847023     
  -6.20471930930426     
   3.08684349610589     
  -3.76071368963151     
  -8.20389159887836     
  0.676816306106551     
   3.35720380654656     
  -7.98669273349018     
  -9.92591752658365     
  -4.87709180984486     
  -3.45845883328644     
  0.658152304679612     
   3.32324562709690     
  -3.15620421336178     
  0.677960244183167     
  -3.50111334510534     
  -3.11495448361180     
  0.643956780992911     
  -7.34548951197529     
  -3.84686525993564     
   4.08176782369312     
  -7.53102890558968     
  -1.18671326558128     
  0.676899401405828     
   3.74499867255760     
   3.48777952008864     
  -4.49815292997867     
  -3.93900374812742     
  -7.04567634710352     
  0.658248345637442     
  -7.23581673381753     
   3.85447897551317     
  0.678060618007965     
  -6.94384106210184     
  -7.24396256001481     
  0.644031429101911     
  -7.58391371980973     
   3.57167119286957     
  -6.88041534986599     
   4.67668360403149     
  0.630549124507749     
   2.87384752660003     
  0.630496058288497     
   3.01670916306645     
  0.146657067553498     
  0.156054193982706     
  -2.20814836001226     
  0.146530290754734     
  -3.80517965814240     
  0.155950388932345     
  0.167228587068649     
  0.176539903906196     
   3.12004503547740     
  0.167102922909372     
  -6.86576497685047     
  0.176437285356181     
  0.187706634242156     
  -4.30396354968297     
  0.196961884135221     
  0.187831049995687     
  0.197063195797101     
  -6.01620352985260     