 TITLE="euler solver on unstructured grid" 
 VARIABLES= "X" "Y"  "P" "Rou" "U"  "V"  "nuT"
 ZONE NODES=       11173  ELEMENTS=       18178  ZONETYPE=FEQUADRILATERAL
 DATAPACKING=BLOCK
 VARLOCATION=([3-7]=CELLCENTERED)
 -0.307120406267080     
 -0.302203016530729     
 -0.302591658842152     
 -0.306718782831033     
  -7.60705566192745     
  -8.89058043170293     
 -0.301029295718363     
   9.22250204613956     
   9.25113045118241     
 -0.312151209384010     
   8.54280799964279     
  -9.70153555052593     
 -0.309809621404964     
   8.64167230467777     
   8.63564265458082     
   5.42112371951881     
  -9.48658161425132     
  -10.2852699609238     
 -0.317454394952147     
  -9.49649433658371     
   9.15112646244262     
 -0.314004659320696     
   9.71030003800220     
  -9.86531056433596     
 -0.318096471844068     
  -9.16293277898721     
   9.07915989455606     
 -0.311491128955362     
   9.23240533111759     
  -9.12607894326228     
 -0.307276141770625     
   6.09789559920683     
  -6.61063902397470     
   8.44357477507482     
  -6.56986128012971     
  -7.27102434804776     
 -0.302224073406972     
  -6.07600894176387     
   8.60972879185933     
 -0.311676955123345     
   5.76481200335782     
  -8.09196375354444     
   6.84609116060018     
   5.53395964275197     
   6.14140505832116     
 -0.307178520334191     
   5.31648012685301     
  -7.59583725687254     
 -0.314122189745452     
   5.71900738298096     
  -6.58065997962204     
   6.69690351733972     
   6.26282922392048     
   8.66447889147665     
 -0.306663798314672     
   9.13165401336705     
  -6.19794201160632     
 -0.311508978956319     
   7.51461413664212     
  -9.23914659654804     
 -0.301071610847248     
  -6.17697568556695     
  -5.85748636084437     
  -9.24181938551643     
   7.03881865904561     
  -8.45353174908162     
   6.16062269193253     
   8.85820223944144     
  -5.88761958641766     
  -7.06877595852036     
  -7.03803169284726     
  -9.58736188420493     
 -0.285527293147147     
 -0.284808079425883     
 -0.280180406036484     
 -0.290924978150937     
  -7.60642634246295     
  -6.94105780777696     
 -0.289794376262737     
  -8.09681193194790     
  -7.06162464314086     
 -0.286083262599217     
  -9.04622875990692     
  -6.72232900655956     
 -0.291533264723646     
  -8.58196926586459     
  -9.19834328829894     
 -0.295444907426392     
   9.31931143077979     
  -9.81247218552808     
   7.92017071944301     
   6.40449195853368     
   5.86602436345455     
 -0.299318432698109     
   8.32190584323182     
   5.88779839523368     
 -0.286406888352577     
  -9.70597159766584     
  -8.64177585407445     
 -0.281884558949348     
  -8.15142502244290     
   8.21527792072434     
 -0.279809032226352     
  -8.69667537162358     
   8.06937851763310     
 -0.275208757127680     
   9.32559448044449     
   8.55426378128350     
   8.88676640033821     
   7.63816070401837     
   6.55041485017017     
   4.98290766670753     
  -9.87413647079538     
  -7.66133356061088     
  -6.07818981407784     
  -8.19544597435103     
  -7.58937298759577     
 -0.289089659313303     
  -8.20629254275885     
   7.37021757514929     
 -0.285372116504256     
 -0.280031214341295     
 -0.284672904313386     
 -0.290781194570155     
  -7.81885609715775     
  -8.91690159305090     
 -0.289629725098512     
  -7.44411375141990     
   7.92347021250106     
 -0.285906290099603     
  -7.32559904312952     
   7.85663390083142     
 -0.291349812710077     
   8.09874263801705     
   7.34635322193558     
 -0.287255707383445     
  -7.58262786918941     
   5.64920200917181     
 -0.296871864514366     
   7.27269562554086     
   7.49226113787521     
  -9.04110912685394     
   5.38383735724557     
  -8.31478565071137     
 -0.298495590106011     
   7.39824458017568     
   4.99446091577498     
 -0.281719129716664     
  -8.40754794352860     
   7.68585785268839     
   6.10679975635486     
  -8.07217447030402     
   9.24086874730822     
 -0.275046698545927     
   7.78837972123520     
   8.65069492538610     
 -0.279626167077298     
   8.00667216481002     
   7.29299004290686     
   6.91511899300905     
   5.29378476786046     
   6.76926084346030     
  -9.23535191578802     
  -7.17090693781741     
  -7.11619640266633     
 -0.288969939545785     
  -9.72229532913104     
  -5.73743845511648     
 -0.295699967311307     
   6.85955545769624     
 -0.292869507605636     
  -7.91085510427281     
  -6.39482683744141     
  -5.98972957822021     
 -0.296272072791482     
  -5.47658563193443     
  -8.87060002011899     
 -0.295617465200959     
 -0.292972120061788     
   7.31320668792263     
  -8.75155846519336     
  -7.81898634744259     
   7.97364578205900     
 -0.296355854844546     
   5.36491523507305     
   8.44578411620644     
 -0.306583155649366     
 -0.299036054171316     
  -8.26207596282131     
   9.24778011390740     
   8.26374646467350     
   5.03667759305186     
 -0.304231510422324     
  -6.50833231098416     
   5.78042849458287     
  -10.2831819760855     
  -6.49962776550280     
   5.13840894223640     
   7.20023048996479     
   6.73962187825915     
  -7.36235355196704     
  -8.59662066218988     
   6.94207480923238     
 -0.299099523737056     
 -0.303392430691871     
  -5.65762085988408     
  -6.73630597903019     
 -0.306023284955613     
   6.13448607104559     
  -9.39867148768663     
  -8.64187072338455     
  -9.96985631574263     
   6.63731032401318     
  -8.60047226548256     
  -5.54760507349501     
  -9.76990483876466     
 -0.299577025814141     
  -9.82914169809414     
  -7.32384122728519     
 -0.306228181462857     
  -9.49124996825355     
  -1.74033305854499     
   6.43776691986364     
   6.19388784408391     
   5.00651085402217     
   6.44723661092187     
   4.49764621168100     
  -1.17070101573801     
   5.13107157863853     
  -1.57761318907280     
  -6.77209735452805     
  -8.15272430561214     
  -6.86604801361111     
   9.71238802284049     
 -0.274448623904568     
 -0.269659314933721     
   6.33799128385440     
   7.62693319749782     
   9.24141172984449     
   5.84870111006181     
 -0.270040513047441     
  -10.2901419255465     
   7.20694374845863     
 -0.276198361329179     
  -7.71644478929655     
  -9.63562616637747     
 -0.270373007001071     
  -5.65166125507117     
  -7.95459599421616     
 -0.265687036283341     
  -7.65576714595315     
   5.48671591235649     
 -0.262101758033049     
   8.16544520422591     
  -10.2824859811394     
 -0.257183284286306     
   8.30956778772252     
   6.79293554382284     
 -0.276913375918131     
   4.88898376024098     
   8.02247681710963     
 -0.263752466969347     
  -8.60407679259107     
   8.95804022355079     
  -10.2604751412349     
   7.34777036775138     
   5.72670524141947     
   8.33074847087550     
   5.01761628573097     
   6.78135011865754     
  -9.54212014431253     
  -10.2576911614506     
  -9.08621615954759     
  -6.96466588947721     
  -9.44854824841654     
  -6.11012317141173     
 -0.274632259679653     
   5.19143932156032     
 -0.269833423610791     
  -6.51288311537103     
   1.53562341948987     
  0.776644798281652     
 -0.270234184528480     
  0.416159440614076     
   9.72056596341822     
 -0.276403566874988     
  0.418628728434682     
   1.21234734316078     
 -0.270587222552144     
  -3.61814321615452     
   4.77796216357256     
 -0.265889770541213     
   9.33635676446199     
  -5.34761968399039     
 -0.262333524165307     
   8.96670040247265     
   8.99113943368402     
 -0.272833268214057     
  -9.98377758182934     
   1.18191293423158     
 -0.257380209168289     
   1.62744374928489     
  -9.95318037514193     
 -0.263938123186759     
  -9.97023746194575     
  -4.99741226667240     
  -3.52558359694811     
  -4.12981353471683     
  -9.80890293224608     
  -8.29621124920009     
   3.71546379149395     
  -3.79556943730303     
  -7.05265562717846     
  -5.52678549188038     
   9.19158919365925     
  -2.19263343782785     
  -9.99352097918462     
  -5.31698275417063     
 -0.301113813321463     
   6.55938647386755     
   6.59058003289710     
 -0.308573125874393     
  -9.57078572525004     
   4.87949783289437     
 -0.303557929800525     
   8.99246388392575     
   1.77337193332199     
  -6.85085463505192     
  0.568682854077444     
  -5.19692239448693     
   5.22865974576053     
  -9.49902477581252     
  -9.97165682753208     
   4.69051697853694     
   7.92165557461964     
   5.83554876376002     
  -9.98127276077203     
   7.88139986868841     
  -9.25663307386135     
 -0.298168514301381     
   6.35752841529641     
   7.77779068984209     
  -9.81905146451092     
  0.809926831464134     
  -8.69585425095767     
  -10.2562991715584     
  4.883848757628838E-002
   1.09343309580562     
 -0.305006171121949     
  -10.2817899861934     
  -1.27851000944742     
 -0.296311470029569     
   3.63735862942327     
  -4.01677116103615     
  -5.82896690589827     
   5.07352214297758     
  -3.73961471847462     
   9.73405086529787     
  -4.10298743501506     
   7.38368262377782     
 -6.944225700481195E-002
  -10.2611711361810     
  -4.12943604237369     
 -0.255787628345676     
 -0.249774397003560     
   2.58396876512678     
 -0.249639450628472     
  -9.65287013337633     
   6.75071440606471     
 -0.255568915391115     
   9.71725998746316     
   7.30941519567646     
 -0.250911358113837     
 -0.533954400692727     
  -9.90902510315833     
 -0.243912426050067     
   7.53035194831691     
  -8.07635108187308     
 -0.241298133568348     
   7.14053317719081     
   9.37178157160023     
 -0.243176134405205     
  -6.74676039532717     
  -5.82587512055522     
 -0.231526405839312     
  -7.13657916645327     
   9.73718284252937     
 -0.252776205013339     
   9.73787883747547     
   9.38898659189525     
 -0.257645732469966     
   1.27395907324710     
  -7.91621670870546     
   5.47970009722461     
  -10.2838779710316     
  -8.30603547983157     
   6.20076126177100     
 -0.873922130486020     
  -10.2845739659777     
   5.10920235785170     
  -1.53560987572911     
  -3.62958627449850     
  -7.52639793757936     
  -1.22546207850921     
  -5.85158509397392     
   5.19139125547447     
   1.26102580953884     
  -5.45310140265707     
  -2.28290525181473     
   5.08780369875800     
   6.13590421874051     
 -0.263729490373677     
  -6.48505195669725     
   3.02809214620898     
 -0.256006675896884     
  -10.0420886520569     
 -0.249982493315166     
 -0.249867640371290     
   4.22696689329945     
   9.04766609350698     
 -0.255804008295550     
   4.14245640339159     
   6.72965566130289     
   3.22499488215053     
  -10.2887499356543     
  -8.85598862412528     
 -0.251161480176549     
  -8.46616985299918     
  -5.95196855610382     
 -0.244149136299263     
  -5.64459788209357     
  -7.68653231074698     
 -0.241517456444985     
  -4.41052682854222     
  -10.2569951665045     
 -0.243436101039909     
   6.10572213235209     
   9.36725299404409     
 -0.231757054159186     
  -8.62229397732884     
   9.04357999170657     
 -0.253057069937197     
   6.01100546605426     
  -8.95635852714815     
 -0.257899988800806     
   4.82287911973850     
   5.68732504514155     
   3.45733737066259     
  -9.08567302208376     
   8.99355505256272     
   8.70451274967070     
   9.18300721615931     
   9.05928290535260     
  -9.24580739525138     
   9.37950326652384     
   8.30998949056911     
   3.75633020422572     
  -9.70382074063780     
  -10.2894459306004     
   1.25710310207933     
   9.45896678635023     
  -9.84793502430530     
 -0.264003877066625     
   9.48283832098806     
   8.89703224058965     
   6.98039880402319     
  -8.20061155968533     
   4.77571996588492     
  -9.53492264897928     
  -6.27242920925148     
   5.50937063515893     
 -0.322717987389993     
   5.04483757981052     
  0.851799599545467     
 -0.304799417671504     
  -6.12725722624259     
   5.58125809268642     
   5.97107686381252     
   7.06102939525379     
   5.62688051099738     
   9.40561031475627     
   9.71447600767877     
  -3.55630803328224     
  -1.16956690514567     
   3.25158041617046     
  0.233252690691806     
  -5.68776091857133     
   3.60280146399608     
  -3.65868611767633     
  -5.28018355616735     
 -0.844831291075456     
   2.59824106311921     
 -0.324951694895232     
   5.27983340399893     
  -9.20548061230999     
  -4.38704323433109     
  -1.90442002335445     
  -6.60411970689776     
 -0.244073977850247     
   9.13940258787299     
  -8.93536924488320     
 -0.243777288185244     
   4.86976267043605     
  -7.29671353962088     
 -0.314476497232112     
   4.94125396237442     
  0.304493861984550     
 -0.253086744656044     
  -3.07037232950447     
   8.84107697765633     
 -0.252745229606645     
  -6.90689476849478     
  -9.47549179320986     
   2.51217883472343     
   3.22505136214886     
  -5.64570987608402     
   5.22077690753296     
   3.38733040096182     
  -10.2590831513428     
   9.34871779062337     
  -3.95127034338218     
  -6.15381628420994     
  -3.23896640918142     
   1.83582932810018     
  -5.42463461258324     
 -0.658342546913795     
  -8.84344605906092     
  -9.82507038480803     
 -0.321400681253829     
   8.41161259835467     
  -7.81487763019608     
  -5.62011411883162     
   6.86632475877175     
   8.07496751396537     
 -0.310645847902499     
  -5.80860219726934     
  -4.47202530188081     
   2.57776237370764     
  -4.31126061337480     
   4.84850521141005     
 -0.325939749624756     
 -0.824087298104630     
   2.78178468924847     
   4.79413514346762     
 -0.159138622750252     
  -7.39653464674160     
   2.88593692628130     
  -7.10462291550152     
  -5.22470265869949     
 -0.230654637435893     
  -4.98656471614281     
  -1.23192115390497     
 -0.230382268267729     
  -10.2873579457621     
  3.976651077072135E-002
  -5.49976858610513     
   4.97602753304961     
   4.09875046339582     
 -0.318712888240143     
   2.32063331981853     
  -10.2866619508160     
 -0.333651136687151     
  -7.03726041194268     
   3.69426687471801     
  6.922229750294706E-002
  -5.45558511617544     
   5.22641587176163     
 -0.295395221083657     
   3.36760571981868     
  -3.36688660983054     
   1.80229242865501     
  -3.67731761216688     
   9.74414279199032     
   2.68124365222900     
   2.12562978670618     
  -5.80125944727457     
   4.44880148290256     
  -5.96712285307498     
   4.62245561165908     
 -0.340263912221978     
   4.27341594399534     
   2.98048663045817     
 -0.227001548908928     
  0.976170166955107     
  0.271008365329269     
 -0.227323363681926     
  -9.79388622454842     
   1.46909170019676     
   1.25200755239526     
   1.08033462338169     
   2.96205745189919     
   9.02831001779302     
   6.36089563493862     
  0.654399945460101     
   4.20709354007568     
  -3.49113548343378     
   4.74669455211204     
 -0.220456797020595     
   1.24105114371527     
   1.65818831821863     
 -0.220214693339253     
  -10.2859659558699     
   1.29658498627332     
 -0.336938066499557     
  -10.2632591210193     
  -7.42536449292377     
 -0.331974645946331     
   2.56441386651495     
  -7.72559447188670     
 -0.321779350898361     
  -8.74167074305223     
  -3.71444709495561     
   8.53967388852759     
   7.00871690302621     
  -2.60553392447675     
 -0.342223322385776     
   4.63004530435774     
  -8.04601038365877     
  -8.97662729082653     
  -7.73569186238665     
   3.15820353331576     
 -0.354277206126663     
  -7.35675688782105     
  -10.2730900494968     
  -9.01614933992793     
  -8.94909239923698     
  -7.42531865573323     
   4.60452422958083     
   2.56087660505401     
  -9.64095507471511     
 -0.327169444066983     
  -9.59769956213273     
   3.22837491257760     
  -7.33091260969360     
  -10.2618671311271     
  -8.38375091116147     
 -0.218782081537949     
 -0.207233471316638     
  -9.85767215975640     
  -9.03169707400448     
  -8.41840415724526     
   9.71656399251706     
 -0.206967819042243     
  -8.66185662275743     
  -8.55418416071224     
 -0.192639876550117     
  -8.91687746171202     
  -9.26758845113992     
  -9.02759060100039     
  -6.55329002288562     
  -9.34032859318206     
 -0.219058861740426     
  -5.23508313485776     
 -0.207486919434668     
  -9.33284779948676     
  -9.05923196559348     
  -9.23168236168963     
 -0.207267436539887     
  -8.92153456239014     
  -8.70250211231965     
 -0.192904327345503     
  -8.99399604232485     
  -8.35621601952852     
  -5.34568359005486     
  -8.89384527908924     
  -9.39675078590775     
 -0.310979290446789     
  -6.29168478031638     
  -1.17831933015885     
 -0.302184736035275     
 -0.792961553661760     
  -2.24766475808246     
  -1.50997307615375     
  -9.21542231929450     
 -0.847645372244334     
 -0.326027867103147     
  -4.59993238007821     
  -9.58073962856957     
 -0.315987795621912     
  -5.85753495764842     
  -8.64086595598075     
 -0.315644571900618     
  -8.77256976204580     
  -4.98668582705905     
  -5.75188127119604     
   4.86340666541978     
  -9.60321899367673     
   1.00665664425660     
   5.58994128800193     
  -8.66642165519966     
  -10.2717850589923     
  -9.00416218241554     
  -5.02425281431794     
   9.71378001273268     
  -9.82174514919560     
  -9.16441845500254     
  -4.63252293592802     
  -8.81659142338843     
 -0.892646855416203     
 -0.280559105817030     
   4.82149337414787     
  -3.30245858515096     
  -9.55636520493793     
   8.14985511740150     
  -9.28473436837398     
  -9.56340188298740     
  -4.02500483934314     
  -3.49597655217169     
 -0.283702005444644     
  -8.86602454933418     
   9.15005246408299     
  -7.89676540995966     
   1.23153746797013     
   9.36819290745059     
 -0.226160753592477     
   5.39599263555884     
  -8.73897520298516     
 -0.191609685280973     
  -8.01673120942206     
  -9.54540237352053     
 -0.176608655327596     
  -9.47520010948057     
   1.45647656213259     
 -0.198375906435438     
  -7.78138067892116     
  -9.13830374028876     
 -0.191916738326536     
  -3.83674370880422     
  -4.94265816306111     
 -0.176883473862662     
  -3.45514251657388     
  -5.31717901456175     
 -0.198731305647801     
  -8.97344703329315     
 -4.988765322439112E-002
  -9.59242049737809     
  -7.63600933491834     
  -10.2687400811485     
  -8.54833686995448     
  -8.69395654678854     
  -9.62164127627794     
 -0.325796417006198     
  -7.43463077297426     
  -4.23100596950578     
  -9.99808304817549     
  -8.62826206331770     
  -4.18794943203543     
  -8.51754033587041     
  -7.28184074359987     
  -8.88328290133417     
  -4.90509117579959     
  -8.72149143837747     
  -8.79568175768378     
  -4.54787098848557     
  -3.57976641724719     
  -5.18917335599310     
 -0.168042476340391     
  -5.06181980186777     
 -0.159747894228361     
 -0.157270531998054     
  -8.61138676306317     
  -8.70538063445971     
 -0.167622135641616     
  -8.37324122472586     
  -8.52814994629068     
 -0.156466578200165     
  -8.01115419715982     
  -9.24901687957711     
 -0.166242453966347     
  -8.03250535047525     
  0.381942304039127     
 -0.146850401197683     
  0.632765040867922     
  -8.92507434342166     
 -0.141788492455879     
   2.95872993042908     
  -6.31685117761480     
 -0.143114400550162     
  -5.29907154790735     
   2.00719348400981     
 -0.181607151148524     
  -8.63888676361045     
  -8.34615257808212     
 -0.181325477566342     
  -4.10288978410576     
   9.71308401778658     
  -8.99479818661208     
  -8.26251327204679     
  -8.73489279220300     
  -3.34164610935259     
  -8.59466749968671     
   4.37556794077921     
   9.03042630851861     
   3.26833826345209     
   3.99678687615604     
  -8.58375531615317     
   9.21589528412725     
  -3.97733208445023     
 -0.193341792266846     
  -8.96040147688329     
  -4.68225309851347     
 -0.135720960401767     
   2.38205890156058     
  -4.45867342727679     
 -0.123278256419991     
   4.69960042439015     
   1.47963897096316     
   3.51566214594229     
  -9.36167974650101     
  -6.28848734909450     
 -0.126135242661857     
  -7.65480466249093     
  -8.28834563133302     
 -0.114826832202653     
  -7.08761106370530     
   2.20620739711364     
 -0.118658434985293     
  -8.55599242275265     
  -8.32868112794031     
   1.83134197954815     
  -8.22893352196405     
  -4.71982008577142     
 -0.105004602247342     
 -0.392145518734998     
  -8.30117814099445     
 -0.104336354441163     
   3.69261315306328     
  -8.32480142476320     
 -0.103222365006612     
  -8.38885488471088     
   3.98207963835142     
  -3.72048298196754     
 -0.592155837385193     
   3.89056526637333     
 -9.798793136835410E-002
  -8.12565521752113     
  -8.27360453038979     
 -8.510049096372765E-002
   4.34267221486270     
   3.95961741086401     
 -9.440316558109289E-002
  -5.18515162518045     
   3.33639961194159     
  -3.02320259350838     
  -2.37720424258616     
  -4.33455088411790     
  -3.18374907633944     
   2.99211757234607     
   3.71130273309208     
   1.65549047519970     
  -7.97191922863821     
  -8.48395436324382     
 -7.848401410339145E-002
  -2.97970235710229     
  -4.33737056448258     
 -0.167727414923635     
 -0.159463667150132     
  -8.94111733534044     
 -0.156946969871215     
  -1.20876644349992     
  -10.2625631260732     
 -0.167265349382050     
  -2.18536254895534     
  -1.92295918949076     
 -0.156099450049551     
  -2.24317550648108     
   1.46338474459401     
 -0.165827695961796     
  -1.25308909608309     
  -4.37463151984992     
 -0.146507940036525     
  -2.88814500948545     
 -0.953218796029085     
 -0.141495955915407     
  -2.56506304419428     
 -0.604530220386910     
 -0.142719560201706     
  -1.55297594019785     
 -0.907964611271223     
 -0.181275904667275     
  -3.31497341345128     
  -1.81116379990722     
 -0.180943360506786     
  -3.90495524625563     
  -1.94329579450759     
   1.66411281142062     
  -1.98865856071057     
  -1.59820046548586     
  -1.29832887295575     
   1.63232806655581     
  -2.33343310103522     
  -9.51666241383679     
  -1.68865120489288     
  -1.89808927216908     
 -0.600619782089143     
  -2.93468317780814     
  -2.87325398139958     
 -0.192895016865055     
  -4.13367960038339     
  -2.28856157227004     
 -0.135386150585617     
  -2.11706384689955     
  -1.13301537145683     
 -0.122978557030936     
   4.68559186702374     
  -8.15178775231722     
  -2.58826131692615     
  -1.45052566613637     
  -1.64343051659159     
 -0.125790685849156     
  -8.26635095141644     
  -1.48361599786774     
 -0.114494193449742     
  -7.95152422508473     
  -8.33964665726534     
 -0.118279475978693     
  -7.90808569318234     
  -7.71885812286782     
  -8.97050081705803     
  -4.40969730898874     
  -7.88126602447100     
 -0.104651720564017     
  -8.21811781975200     
  -8.00749715452854     
 -0.104030557001458     
  -8.24596029613730     
 -0.263011098444800     
 -0.102805981161227     
  -2.67855357318677     
   4.43765092764381     
  -5.10612075119912     
  -6.72643863893103     
  -7.96348564854363     
 -9.765396382862329E-002
   4.37930284699678     
 -0.608114963704705     
 -8.478966873830729E-002
  -5.29266575792092     
  -7.98980304383672     
 -9.403685011634703E-002
  -7.94799198380950     
  -2.07580934927852     
  -5.13695377370209     
  -8.07787014514088     
   2.32601146314246     
  -9.13473111923815     
  -7.50235277017922     
  -8.65979980568846     
  -7.69132150741682     
 -0.417341307510091     
  -1.08424354413000     
 -7.808314936303359E-002
  -7.93614650793666     
   1.97173046427082     
  0.705287819180447     
  0.707454302471566     
  0.689564711157400     
  0.683297801638631     
   3.53447784377108     
 -0.792169106173901     
  0.730607386839659     
  -7.39792725732911     
  -7.65323854970900     
  0.705123055257968     
  0.689432712446690     
  0.707331149853210     
  0.683110704329552     
   3.82741192837005     
  -7.03270702474879     
  0.730504161845105     
  -7.37047162694110     
   3.72379014572984     
  -7.83930780552365     
  -1.29735319324515     
   4.65289731714262     
  -8.60408386973235     
  -5.37420552280151     
  -4.52374142938560     
   4.72928130588582     
  0.670572137322063     
   3.60122091241712     
  -8.05385650378934     
  -7.78602515070992     
  0.670713023519320     
  0.766886671151889     
 -0.930403427399421     
 -0.802024201002630     
  -6.67326535700059     
  -3.87819187240878     
  -8.30782912244113     
  -2.63428152728801     
  -7.10953666424296     
 -6.565377676407093E-002
  -8.01847549210079     
 -6.533892977279245E-002
   1.85450439142208     
   4.61534443068874     
  -8.46019113247212     
  0.550701504221490     
  -7.64175401093662     
  -1.94559605106706     
  -4.91228970934245     
 -0.302858992264895     
  -10.0021730565284     
  -9.78192717836565     
 -0.361681583309247     
  -9.32979656753570     
  -7.70826985616126     
  -3.27979337299197     
  -9.95594480823715     
  -9.63703284151918     
 -0.342774149954960     
  -9.43856195630591     
  -6.54380729371013     
  -1.32386460172178     
  -1.77597952575187     
   3.76223529860533     
   4.41855565315409     
  0.400764279135831     
 -0.335960074728714     
 -0.124468571817984     
   2.40522130991173     
   2.69472302949978     
 -0.127855394644307     
  -7.85199809632735     
  -3.32519213812181     
 -5.568223872865745E-002
  -9.07111461166435     
 -4.598928425643509E-002
 -5.530332820901794E-002
 -4.567130233119657E-002
   9.20710769771261     
 -0.308620459007543     
   3.65333845364149     
  -9.57450207490663     
 -3.670746961366522E-002
   6.44630069416731     
 -2.619269415838432E-002
 -3.632108036701768E-002
 -2.587245050972790E-002
   4.12871478775058     
  -5.05905951310020     
  -8.68115095900500     
   5.81094249064490     
  -3.23407222071351     
  -9.36839281670763     
  -7.06018104623824     
 -1.663951595524382E-002
  -5.74577312660831     
 -6.273202745726442E-003
 -1.625121103140544E-002
 -5.951468066792549E-003
  -7.61470281863962     
  0.663265910233969     
  0.650743173131591     
  -4.06463528765214     
  0.663473305365570     
 -0.820521173575951     
  0.650893190357587     
  0.698337215692570     
   3.94759251145841     
  -1.85686941100330     
  0.698588696146071     
  -7.62567808387080     
  -7.88336600826703     
  3.522943218441521E-003
  -7.57021098017275     
  1.374801844646641E-002
  3.912397553704787E-003
  1.407051713985602E-002
  -6.24912219223173     
  2.376878532859981E-002
  -4.56563705359848     
  3.387066373260977E-002
  2.415867812602200E-002
  3.419323924573514E-002
   4.54535966259192     
  4.408277779313724E-002
   2.22936980755129     
  5.405198646923424E-002
  4.447245128307127E-002
  5.437402203975832E-002
  -7.68073496490128     
  -4.75738707328768     
  -8.84968834209421     
  -7.59088511409729     
  -1.47302768204885     
   9.72796090961029     
   4.78294988825781     
 -0.164165334313934     
  -1.41694520188058     
  -2.46082314643597     
 -0.164080535218264     
  -5.09938678844437     
  6.217169059415025E-003
  6.445340342766361E-002
  -7.68071613428478     
  7.431328660862781E-002
  6.484225178759183E-002
  7.463420461428986E-002
  -7.27601180169012     
  -2.41908704416229     
  -7.55078402945332     
   9.74135881220594     
  -6.64984077119624     
   4.28428408379766     
   3.01537421134606     
 -8.243047353972127E-002
  -7.93586734603479     
   2.58199919196369     
 -9.066619447545746E-002
  -4.02455604148707     
  -7.00521464434506     
  8.487569869835662E-002
  -4.83252102488640     
  9.462116246926494E-002
  8.526315879448473E-002
  9.494042230318306E-002
  -4.79495405962086     
  0.105346041166965     
  -6.69496085783855     
  0.114988669246031     
  0.105731582877055     
  0.115305764919638     
  -6.61909576102276     
  0.125855990800273     
  -6.64647141844864     
  0.135401106508480     
  0.126239112855424     
  0.135715538413567     
  -6.19998489463330     
   3.07740901949575     
  -3.75226440336998     
  -8.20127026533495     
  0.676732285258204     
   3.34705949571227     
  -7.99094060072186     
  -9.92549148567992     
  -4.87008788978695     
  -3.45027413288027     
  0.658055369799870     
   3.31265675199989     
  -3.14828409904242     
  0.677858950110558     
  -3.49337352343345     
  -3.10659068468742     
  0.643881250502546     
  -7.34115743522641     
  -3.83930842904733     
   4.07248317991339     
  -7.53101848249295     
  -1.17898909915086     
  0.676981504461557     
   3.75380914236792     
   3.47944152096488     
  -4.49052119516546     
  -3.92894671778296     
  -7.04376199214458     
  0.658343415588356     
  -7.23340800490912     
   3.84636256164944     
  0.678159991022273     
  -6.94105974441146     
  -7.24244406911717     
  0.644105134915006     
  -7.58225800669207     
   3.56394539043685     
  -6.88021757454476     
   4.66995180632185     
  0.630601276177122     
   2.86930758537271     
  0.630442120111714     
   3.00637779925932     
  0.146783585797575     
  0.156157736368178     
  -2.20057845372080     
  0.146403357155684     
  -3.79717711016407     
  0.155846404533766     
  0.167353963975547     
  0.176642231244783     
   3.11106197229868     
  0.166977072359081     
  -6.86752937374037     
  0.176334457959093     
  0.187582002408466     
  -4.29792705795462     
  0.196860334025772     
  0.187955149809696     
  0.197164187696001     
  -6.01059204721220     