 TITLE="euler solver on unstructured grid" 
 VARIABLES= "X" "Y"  "P" "Rou" "U"  "V"  "nuT"
 ZONE NODES=       11173  ELEMENTS=       18178  ZONETYPE=FEQUADRILATERAL
 DATAPACKING=BLOCK
 VARLOCATION=([3-7]=CELLCENTERED)
 -0.307086870532050     
 -0.302255888550416     
 -0.302458784325680     
 -0.306828312316459     
  -7.77688186319618     
  -8.65249083780795     
 -0.301270033764835     
   8.93121976292283     
   9.04094492457837     
 -0.312187333788496     
   8.32262974859472     
  -9.46045825332657     
 -0.310045189950411     
   8.44318563620495     
   8.85701007001887     
   5.73344570222928     
  -9.30615116958113     
  -10.0641926769058     
 -0.317617594438997     
  -9.27401200998104     
   9.36902875769735     
 -0.314461239154288     
   10.0001188394362     
  -10.1756810088567     
 -0.317941457620850     
  -9.43889605792650     
   9.27575611043717     
 -0.311367554033830     
   9.46727031957265     
  -8.86684688359691     
 -0.307066087298889     
   6.37184204308397     
  -6.78924870976648     
   8.14278343955434     
  -6.79108844987435     
  -7.46427637640979     
 -0.301905784430237     
  -6.27824150553551     
   8.33642212793614     
 -0.311415974464127     
   6.01892365616321     
  -8.36693338581504     
   7.14398479057981     
   5.81623410695706     
   5.91571039030013     
 -0.306791927790819     
   5.06642466015768     
  -7.88706500195476     
 -0.313681096077991     
   5.48097564806245     
  -6.29519802964575     
   6.97409725595967     
   6.01347839590142     
   8.41034567665881     
 -0.306083599429389     
   8.89523143289365     
  -5.89514789056069     
 -0.310806004156026     
   7.25299431355922     
  -8.95656612687854     
 -0.300566477320963     
  -6.45096276412512     
  -5.57710789461374     
  -9.40252158463088     
   6.79109646695676     
  -8.74598555060702     
   6.45725954278450     
   9.15263479557132     
  -6.11332141870122     
  -6.79206240630254     
  -6.73789084037896     
  -9.76882431538074     
 -0.284034328235011     
 -0.283491705366551     
 -0.278742534863537     
 -0.289530050934420     
  -7.85124433931191     
  -7.21824729415724     
 -0.288216037894960     
  -8.35229379530923     
  -7.31463622150415     
 -0.284397964981990     
  -9.30392420208841     
  -6.92519552952878     
 -0.289788469436665     
  -8.84971110471563     
  -9.43963205123695     
 -0.293862530484441     
   9.62992163528318     
  -10.0429460934780     
   7.60199028691779     
   6.64477077867714     
   5.65705666518470     
 -0.297508796559504     
   8.52641006319556     
   6.12035487901400     
 -0.284395009297780     
  -9.96227879089774     
  -8.88907512517952     
 -0.280302836775413     
  -8.38805820121635     
   8.46939740052028     
 -0.278074557384698     
  -8.92513704021557     
   8.30524936915160     
 -0.273659672248861     
   9.06224312087857     
   8.79553772531168     
   9.14122594993236     
   7.88738202345572     
   6.80894319742526     
   5.19269742002685     
  -9.60758150717655     
  -7.88731226212717     
  -5.89911460307527     
  -7.90934805666046     
  -7.85511329465743     
 -0.287907614267732     
  -8.42407810583495     
   7.68168366875623     
 -0.286614387186083     
 -0.281223084522461     
 -0.285739207003785     
 -0.291920682073876     
  -7.59028509376232     
  -8.70232942264187     
 -0.290953625860193     
  -7.20208604740971     
   8.14109237435400     
 -0.287340414781222     
  -7.10266565581924     
   7.63116227860015     
 -0.292838651480048     
   7.84133688815640     
   7.55907744226305     
 -0.288931404167015     
  -7.32094380040154     
   5.86452854719605     
 -0.298167379235419     
   7.04311495271046     
   7.72323383495387     
  -8.84519241780697     
   5.58177009157085     
  -8.09144829572052     
 -0.300099287439392     
   7.18875312740573     
   5.26412784994338     
 -0.283053361368554     
  -8.20407967367766     
   7.44236424415720     
   6.30822459043384     
  -7.82606088674892     
   9.41126449285884     
 -0.276354154399384     
   8.05737180769093     
   8.82297030995640     
 -0.281114981870393     
   8.30167276904807     
   7.01536294710376     
   7.14119294458462     
   5.08793701836115     
   6.97708615381352     
  -9.45590519766633     
  -7.38622375095435     
  -7.35036137706738     
 -0.289898146167704     
  -9.51893982979091     
  -5.42021650735360     
 -0.296598540276297     
   6.64389061827844     
 -0.293645233788237     
  -7.71826102382295     
  -6.14410845316092     
  -5.72828920668155     
 -0.296880351039158     
  -5.21385709328311     
  -9.06189325806174     
 -0.294495747494514     
 -0.291939138199030     
   7.59781451972882     
  -8.96118332476327     
  -7.60653914969381     
   7.77123104092861     
 -0.295487340906192     
   5.13980553092623     
   8.71938636891539     
 -0.306961938986565     
 -0.299464103177245     
  -8.46102938585583     
   9.52086044326002     
   8.45062680970615     
   5.32845469947925     
 -0.304776570915615     
  -6.74995922929257     
   5.51118286043823     
  -10.0989087518984     
  -6.79740288278123     
   4.86826922980559     
   7.39470447226049     
   6.90263965690185     
  -7.18055199978386     
  -8.33973406414918     
   6.74330184608666     
 -0.298408820512557     
 -0.302558828357033     
  -5.43322703910620     
  -6.54605798020289     
 -0.305312982375829     
   6.29576146622981     
  -9.54372337497962     
  -8.36434693366834     
  -10.1121892678046     
   6.45329260136318     
  -8.29939903371274     
  -5.81817589105760     
  -9.92866833543793     
 -0.298601109293940     
  -10.0367079547474     
  -7.12230060711982     
 -0.305126094541453     
  -9.18699910641251     
  -1.90868586358328     
   6.61094009632016     
   6.02553198176034     
   5.18846717965868     
   6.24549609278885     
   4.69563580489288     
  -1.34353850424104     
   4.83899924230850     
  -1.75961073650360     
  -6.55777754553080     
  -7.88483603285221     
  -6.69598040391651     
   9.96540276444357     
 -0.275946503855091     
 -0.271075334923128     
   6.55916495732348     
   7.80783831210345     
   9.04779313059792     
   6.03041817552234     
 -0.271628774145274     
  -9.98318850192297     
   7.46951539487167     
 -0.277885568985880     
  -7.92357661270479     
  -9.31669244040751     
 -0.272142178567903     
  -5.94488746656843     
  -7.78172509904050     
 -0.267357080038066     
  -7.37258927174094     
   5.65139456469407     
 -0.264029236309586     
   7.98401429351172     
  -10.1104807768959     
 -0.258805863743823     
   8.14469827632889     
   6.62436989765298     
 -0.278876522124060     
   4.71757179750003     
   8.18853974851591     
 -0.265272850146936     
  -8.42337879774312     
   8.78305273816971     
  -10.4764460630245     
   7.51123048866182     
   5.42484573956395     
   8.09074181694376     
   5.26572393666597     
   6.49701269641301     
  -9.47128361041406     
  -10.5227341630147     
  -8.91904957928599     
  -6.70774486411617     
  -9.39155347985992     
  -5.90376737596718     
 -0.272893266483677     
   4.87445713378005     
 -0.268180500736987     
  -6.77263420830896     
   1.83757875312116     
  0.472748557708413     
 -0.268408677171192     
  0.101274181108793     
   9.82943147136909     
 -0.274473699806284     
  0.114723330801897     
   1.50568881385213     
 -0.268580503693997     
  -3.92296423620197     
   4.57507646601090     
 -0.263986299958251     
   9.36600714683193     
  -5.03056891404821     
 -0.260175755057854     
   9.00876229347124     
   8.92031683325577     
 -0.270631904307787     
  -9.96570322818462     
   1.35394402342862     
 -0.255531673794973     
   1.79218334113369     
  -9.89130908894822     
 -0.262186019702397     
  -9.89310575026875     
  -4.69074340363107     
  -3.37874376425507     
  -4.42847522449723     
  -9.77592356730793     
  -8.47632502838549     
   3.41310539055421     
  -4.08521757531216     
  -7.20919958178871     
  -5.22666073649509     
   9.29815598575532     
  -2.36639742545842     
  -10.0214296244545     
  -5.20616964389944     
 -0.301869533289998     
   6.74842517604667     
   6.90238848214545     
 -0.309288027793097     
  -9.48588552461749     
   5.07639660643139     
 -0.304595446192073     
   8.82938943473040     
   1.46764104463248     
  -6.61516008539082     
  0.860494025841413     
  -5.10418203404090     
   5.46058065269620     
  -9.55169865079575     
  -9.87867543421691     
   4.38636338654876     
   7.62234199474673     
   5.64588202635574     
  -10.0392484872337     
   7.59974618906341     
  -9.45989313137146     
 -0.296824724790681     
   6.08622334933723     
   7.97698349699976     
  -10.1008369736895     
  0.525091326777857     
  -9.00673822894056     
  -10.5458782130097     
 -0.255260695728850     
  0.799688731073237     
 -0.303501333700777     
  -10.1220528018935     
  -1.09403621490758     
 -0.297419910898250     
   3.52367042103626     
  -4.09793846344343     
  -6.08091068706552     
   5.06826157126179     
  -3.43040161225244     
   9.60522349038268     
  -3.80238730453415     
   7.20155131107261     
 -0.240464577462546     
  -10.4648740380270     
  -3.81292020311325     
 -0.257605789456511     
 -0.251498684534279     
   2.28628542566059     
 -0.251540882376610     
  -9.49146741021359     
   6.43304750700162     
 -0.257528581479466     
   9.88439858946078     
   7.00832500781648     
 -0.253005522567390     
 -0.230156896906387     
  -9.92658701899268     
 -0.245891464538184     
   7.21234269361240     
  -7.75810206718594     
 -0.243125083792745     
   6.82269510030701     
   9.52596796245582     
 -0.245360456534646     
  -7.05850026241361     
  -6.00482290636048     
 -0.233457459044928     
  -7.44814785571900     
   9.55314937832483     
 -0.255140489779646     
   9.54157735332729     
   9.31138117262462     
 -0.259773375338639     
   1.43304831513234     
  -8.22744304232977     
   5.30961709077250     
  -10.0873367269008     
  -8.61709063563517     
   6.51274088884006     
 -0.580437594162761     
  -10.0757647019033     
   4.92211447161130     
  -1.83423020391339     
  -3.88659189684757     
  -7.83779544902439     
  -1.05189892662545     
  -5.69155664836403     
   5.14892180337117     
  0.956876756663868     
  -5.61779875614509     
  -2.09764137479204     
   5.23225987535855     
   5.85133297580347     
 -0.266031872167577     
  -6.21605628582758     
   2.92611676369669     
 -0.253963774880893     
  -9.92360451207274     
 -0.248038751767079     
 -0.247746864298048     
   4.32348094797610     
   8.93709806033742     
 -0.253619787339323     
   4.22577519970311     
   6.49669225637254     
   3.31715681771257     
  -10.0063325519180     
  -8.53739725379673     
 -0.248846844722980     
  -8.14774966049134     
  -5.95616629377649     
 -0.241955779464256     
  -5.59411158537568     
  -7.36845447388055     
 -0.239478491493172     
  -4.50223440471918     
  -10.5343061880122     
 -0.241038096994246     
   6.20482269908417     
   9.41242109861166     
 -0.229622563205246     
  -8.71792648872586     
   9.11650201007489     
 -0.250470662882121     
   6.09966918278926     
  -9.05733097900257     
 -0.255545958698939     
   4.79157897531197     
   5.78072982715487     
   3.56220824352827     
  -9.39638582224595     
   8.85157299988191     
   8.66471916017355     
   9.05295310966340     
   9.01934419829523     
  -8.92704484710212     
   9.26117950173299     
   7.99163788022318     
   3.84986956115590     
  -9.59692785392425     
  -9.99476052692051     
   1.48851936388070     
   9.53423947467239     
  -9.91832099246475     
 -0.261469756181525     
   9.34151587086360     
   8.86714410382725     
   7.29203607545084     
  -8.15874835526375     
   5.01070280565299     
  -9.59949801679859     
  -6.04375135849935     
   5.45370511579672     
 -0.322194410481804     
   4.98732099142086     
   1.15528848259059     
 -0.306182703319550     
  -5.80986410065900     
   5.26410472708545     
   5.65375232039084     
   7.30535226221402     
   5.74491045649230     
   9.54115120232355     
   9.93068668945094     
  -3.64396319820638     
 -0.883682910184160     
   3.14037661982493     
 -9.907918178291564E-004
  -5.72878589749166     
   3.42084612410699     
  -3.78821664863827     
  -5.06380171521349     
  -1.02716280562259     
   2.88593215837991     
 -0.325129442096976     
   5.43119194094630     
  -9.50513522598744     
  -4.51764393176463     
  -1.72101746815504     
  -6.66932513509903     
 -0.241352050799791     
   9.04871195059765     
  -9.02434510143893     
 -0.246284989234452     
   4.63207305111330     
  -6.97880688057517     
 -0.315256441035148     
   4.92295785521597     
  0.605354178696327     
 -0.249965810334379     
  -2.77611487797944     
   8.76056421989545     
 -0.255644042210701     
  -6.58915928726978     
  -9.78603341555134     
   2.81351572177477     
   3.04264793503785     
  -5.54376822985494     
   5.19278411871704     
   3.68966610714994     
  -10.4995901130196     
   9.33996706196630     
  -4.04470376231710     
  -6.09907578106926     
  -3.36570605535834     
   2.11548060049037     
  -5.65843258257416     
 -0.827528466738465     
  -9.01574738953516     
  -9.86748482686247     
 -0.320462513860569     
   8.56772043594278     
  -7.51096359268764     
  -5.42466667114957     
   6.60052773693362     
   8.22749931223673     
 -0.312304854863560     
  -5.77184209410985     
  -4.33900687248256     
   2.66300665904730     
  -4.18833004152534     
   4.59038987843845     
 -0.326606960065018     
 -0.643046932743007     
   2.51784030190946     
   4.51625857278178     
 -0.418934752307300     
  -7.23101206188361     
   2.77413551893341     
  -7.39808259016956     
  -5.36616008120172     
 -0.228152941521985     
  -5.13606610029689     
  -1.41828029494975     
 -0.232681512943703     
  -10.0294766019131     
 -0.205751006883905     
  -5.71003885359958     
   5.14169478020361     
   4.22882838406927     
 -0.319849187099036     
   2.41288683046114     
  -10.0410486269107     
 -0.332993108260481     
  -7.17722640522167     
   3.99555091868983     
 -0.218417603709807     
  -5.64909692720664     
   5.23477031942141     
 -0.297453727160818     
   3.65999836718047     
  -3.60517216290159     
   1.51087800657063     
  -3.92236925964925     
   9.43742912834942     
   2.77703877941179     
   1.83146937076529     
  -5.65705544232135     
   4.66246259330417     
  -6.27920507580283     
   4.91980878280311     
 -0.340455091106897     
   4.56075249528088     
   2.72645612720602     
 -0.229738046061937     
  0.735788875056333     
  1.555579111360203E-002
 -0.224387362671763     
  -9.50808831931894     
   1.24104336332645     
   1.49534970008138     
  0.852567740779381     
   3.13028265914822     
   9.17270943583547     
   6.04339991369623     
  0.422365434261007     
   4.51031859310732     
  -3.31784322469350     
   4.96899927373172     
 -0.218226311268568     
   1.02513933012986     
   1.89282731572895     
 -0.222251670745978     
  -10.0526206519082     
   1.05646294460231     
 -0.335906498809245     
  -10.4301579630343     
  -7.27268775729945     
 -0.331744707935379     
   2.75036559179048     
  -7.87803744729409     
 -0.324012519243422     
  -8.89769927105664     
  -3.94778883927125     
   8.85062644867240     
   7.18623972894785     
  -2.90779986289020     
 -0.343322905596383     
   4.91025358493825     
  -7.90630413285650     
  -8.85637052468384     
  -7.58949985085208     
   2.89366754823006     
 -0.353512407989651     
  -7.50406939001497     
  -10.2667031122073     
  -9.15292701449013     
  -8.84062201853013     
  -7.58200710456238     
   4.87342752471705     
   2.75903994736836     
  -9.77431454368605     
 -0.325775595252254     
  -9.59653839447274     
   3.40656290623796     
  -7.37914447855878     
  -10.4533020130294     
  -8.23874143647556     
 -0.221125294891559     
 -0.209376128453415     
  -9.85169575116074     
  -8.88786753699013     
  -8.36612702641818     
   9.89597061445832     
 -0.209517487137340     
  -8.63463592175780     
  -8.51476873987726     
 -0.194885909493207     
  -8.88087372195035     
  -9.36215787444642     
  -9.00281072260746     
  -6.71092920313588     
  -9.44706974409176     
 -0.216523382995720     
  -5.00783503096357     
 -0.205162149639521     
  -9.29895846770016     
  -8.90361604314330     
  -9.14150478445117     
 -0.204535868819724     
  -8.82487112005525     
  -8.84590977132011     
 -0.190488993636267     
  -9.00044692556288     
  -8.22299293027852     
  -5.10769264657568     
  -8.80898993885673     
  -9.40462990031671     
 -0.309104950106942     
  -6.22626333160552     
  -1.48420952547590     
 -0.299949952773322     
 -0.514003255522556     
  -2.54989901882534     
  -1.21854427502710     
  -9.24432092565190     
  -1.14535268129768     
 -0.323971686675158     
  -4.48503904535135     
  -9.61293776846115     
 -0.314326561257462     
  -5.78881969889203     
  -8.74872201856675     
 -0.314366826377110     
  -8.75657292241491     
  -5.23513242188112     
  -5.50544788716255     
   4.86957610943986     
  -9.70311565857247     
  0.734377551995723     
   5.30711680109356     
  -8.53968172750327     
  -10.2884006587544     
  -8.87211903083702     
  -5.26093555796183     
   9.94225871444849     
  -9.69127351178240     
  -9.22608057316996     
  -4.88634884873749     
  -8.87635352434671     
  -1.13964437226771     
 -0.283069003930200     
   4.97357503998468     
  -3.44648408684244     
  -9.51368206446962     
   8.46097885536701     
  -9.35680532063317     
  -9.63976253254355     
  -4.26507512432924     
  -3.61078525230799     
 -0.281083879619971     
  -8.79297847493448     
   9.12986392043866     
  -7.89589280548640     
  0.949074765036311     
   9.33642432533749     
 -0.519358084784939     
   5.30900420917930     
  -8.75420912503005     
 -0.194231627520973     
  -7.99505919750106     
  -9.53500715810279     
 -0.178953099615007     
  -9.45289341831979     
   1.18444390300474     
 -0.201420955980058     
  -7.62254587557732     
  -9.12474772326456     
 -0.189126381371185     
  -3.66878982649659     
  -5.20306559263012     
 -0.174383803565643     
  -3.74717557356748     
  -5.57441831106698     
 -0.195511877771026     
  -9.08667494750593     
  0.257537860376904     
  -9.68132992735959     
  -7.72835020834368     
  -10.3390282673642     
  -8.61786983345508     
  -8.55543023365633     
  -9.50228017653041     
 -0.327378958258632     
  -7.56997904049625     
  -4.50202170451300     
  -10.1247354715468     
  -8.63227212387123     
  -4.47184875168668     
  -8.51032617956762     
  -7.40700482976797     
  -8.87850992307200     
  -5.17726245654665     
  -8.57117873980942     
  -8.74838955014386     
  -4.82537733178892     
  -3.84870346715804     
  -5.47810620031914     
 -0.165192024694632     
  -5.28673869431797     
 -0.157172830316731     
 -0.154349893131296     
  -8.50823745563315     
  -8.75184531814286     
 -0.164404144317587     
  -8.38603432407852     
  -8.46039842102600     
 -0.153162341638025     
  -8.13249718451255     
  -9.24668472392165     
 -0.162514159028975     
  -8.16562321800265     
  0.102270578497008     
 -0.143767779387269     
  0.359868200437092     
  -8.86665972873808     
 -0.139148082972629     
   2.68427838017588     
  -6.15593315684104     
 -0.139571797479201     
  -5.54360725997980     
   1.72404020167041     
 -0.178608102739703     
  -8.52393322134989     
  -8.47264046117136     
 -0.177878226514966     
  -4.31944019335883     
   9.95383073944603     
  -9.11980098099952     
  -8.26408186682162     
  -8.57188023081335     
  -3.03871941046028     
  -8.62990832195509     
   4.17240149584077     
   9.03249336568048     
   2.96942891660354     
   4.26481060420226     
  -8.49241140728673     
   9.30075464261543     
  -4.22940789969487     
 -0.189319425634056     
  -8.99808312190357     
  -4.92395400935777     
 -0.132710657662466     
   2.09829909941315     
  -4.35774882338169     
 -0.120582848442967     
   4.95749556255091     
   1.22802799881624     
   3.22844615729252     
  -9.48019577758537     
  -6.13940796043837     
 -0.123043248185103     
  -7.75922787391740     
  -8.37869416346209     
 -0.111844838273021     
  -6.94023826153544     
   1.93296169836005     
 -0.115266534546781     
  -8.47645507617502     
  -8.20724442412614     
   1.55870280060567     
  -8.26173352146882     
  -4.94975714543764     
 -0.101848518962936     
 -0.636788060982163     
  -8.19153607142887     
 -0.101595521670515     
   3.95382490372068     
  -8.43951442767770     
 -9.950741488730644E-002
  -8.53889252814955     
   4.27350216479250     
  -3.82286866364177     
 -0.826712454953443     
   3.60277742569911     
 -9.500162106209459E-002
  -7.97171938703262     
  -8.17576515584393     
 -8.232382125096671E-002
   4.60513342912418     
   4.23959202510137     
 -9.113334466379631E-002
  -5.45311138859847     
   3.06136028589559     
  -3.26638778479039     
  -2.61842791772378     
  -4.58143412938077     
  -3.47031408129369     
   3.27695198089236     
   3.43569155508447     
   1.39336539965468     
  -8.06934641620311     
  -8.50797132405487     
 -7.491669819689467E-002
  -3.23470167169385     
  -4.48203402643386     
 -0.170430422776269     
 -0.161898558388024     
  -9.01467606391457     
 -0.159729629063360     
  -1.49989605109071     
  -10.4417299880319     
 -0.170336284396546     
  -2.47711822973293     
  -2.22741112948938     
 -0.159266432134723     
  -2.51969283803920     
   1.17010434582483     
 -0.169410171742173     
  -1.53225863001808     
  -4.60963286211877     
 -0.149461741879153     
  -3.16680650508633     
  -1.22544427098836     
 -0.144011969094259     
  -2.84987692310332     
 -0.869453380794283     
 -0.146136647422457     
  -1.83908917270799     
  -1.19193087166163     
 -0.184115603308287     
  -3.41577997467940     
  -2.10260140417499     
 -0.184231531506597     
  -4.02067470609686     
  -2.21287042436172     
   1.42457632100168     
  -2.24648276277488     
  -1.87257282038215     
  -1.56575758458940     
   1.34978130402896     
  -2.58643263069195     
  -9.42113904399450     
  -1.93951642683400     
  -2.17940486500341     
 -0.854630050956429     
  -3.20150792817659     
  -3.16408611259485     
 -0.196747778593819     
  -4.23768412743636     
  -2.55332808810706     
 -0.138277404351716     
  -2.33968776061713     
  -1.35830611872042     
 -0.125565828335785     
   4.79747961922388     
  -8.14213226093447     
  -2.85998023136196     
  -1.67109831495695     
  -1.90606212069372     
 -0.128772054223176     
  -8.34456904548068     
  -1.69262673938255     
 -0.117375487576487     
  -8.03684502460545     
  -8.38367051819588     
 -0.121567331875879     
  -7.82735162356971     
  -7.85860597483334     
  -9.11802439264768     
  -4.63298287412177     
  -7.94472906548108     
 -0.107715739240213     
  -8.14387502231199     
  -8.01784892389689     
 -0.106679891372208     
  -8.15993167738562     
 -0.544830092166438     
 -0.106430459795029     
  -2.92666014602533     
   4.66412936747419     
  -5.29675171968765     
  -6.57237524202919     
  -7.85915905713859     
 -0.100554363563767     
   4.62956369484208     
 -0.885137198717358     
 -8.749173602180718E-002
  -5.47339746226612     
  -8.09937115101489     
 -9.722392296297445E-002
  -7.99060078154139     
  -2.31016093102721     
  -5.33834496371058     
  -8.13209080797402     
   2.58574578806410     
  -9.08906940518145     
  -7.45630588191153     
  -8.77965770433946     
  -7.66778613992993     
 -0.641540164145491     
  -1.29838563324523     
 -8.158171325494878E-002
  -7.88284260084285     
   2.22589801097844     
  0.703526034943251     
  0.706058290518597     
  0.688098593614966     
  0.681348847832680     
   3.26936493540021     
  -1.01663946009904     
  0.729376831554590     
  -7.25703845710896     
  -7.54241374489635     
  0.706265497694121     
  0.690293282511119     
  0.708105899033740     
  0.684459638722449     
   3.95512655905935     
  -6.90890898695777     
  0.731093111570768     
  -7.24137037778048     
   3.86411151658353     
  -8.02961390571315     
  -1.55237536749805     
   4.89870453320639     
  -8.68727111481642     
  -5.59521353245817     
  -4.21565926476949     
   4.50275029990970     
  0.671519315576012     
   3.72603307907252     
  -8.19874925149143     
  -7.77392816721145     
  0.669176858054422     
  0.505451804303239     
  -1.19049311786649     
  -1.11637452982617     
  -6.54277740251105     
  -4.15419916889379     
  -8.41034262418674     
  -2.89418390228031     
  -6.95273354619679     
 -6.285017595044369E-002
  -7.89055562673599     
 -6.808500886685530E-002
   1.60228689946921     
   4.32662748759410     
  -8.51666963458798     
  0.305411239394419     
  -7.64966471592662     
  -2.12702664771533     
  -5.19715331142479     
 -0.305472048093147     
  -10.0844720148419     
  -9.89424964132520     
 -0.362010401718384     
  -9.45994425765958     
  -7.57386682925745     
  -3.54174560911610     
  -9.90924188189326     
  -9.76190332457479     
 -0.341202580398402     
  -9.29999246463843     
  -6.54354153502236     
  -1.56679597769695     
  -2.00342996881275     
   3.99932441361583     
   4.53886368128486     
  0.107064644244007     
 -0.606705250359180     
 -0.128780088516574     
   2.14188319474720     
   2.97127206196233     
 -0.123495122999060     
  -7.81759862385625     
  -3.57522979868597     
 -5.231841981401580E-002
  -9.12002011809948     
 -4.316669013026034E-002
 -5.861841097012965E-002
 -4.845364631905301E-002
   9.22157290028128     
 -0.305749061904844     
   3.92664973791152     
  -9.59394109391229     
 -3.328607233080253E-002
   6.14252779105350     
 -2.335886039843945E-002
 -3.971040924024719E-002
 -2.868342134295070E-002
   3.89338158926388     
  -5.35826889556707     
  -8.81278373783072     
   6.12309329553467     
  -3.50787992943531     
  -9.40868715958711     
  -6.92459584168525     
 -1.321004793229439E-002
  -5.89832176584311     
 -3.434975498734810E-003
 -1.966623602753289E-002
 -8.784327197460492E-003
  -7.69499588557135     
  0.664802445179432     
  0.651779531171681     
  -4.29294759017808     
  0.661354170647094     
  -1.02417494743649     
  0.649285255747664     
  0.700246877415480     
   4.06606074510192     
  -2.06088731409070     
  0.696065614159717     
  -7.52665037897656     
  -7.81588054075338     
  6.953687322754178E-003
  -7.49477146406855     
  1.658418726223768E-002
  4.783884310711234E-004
  1.122213260578262E-002
  -6.38541191915253     
  2.719450324829845E-002
  -4.74175121676286     
  3.669867327956906E-002
  2.071191422456488E-002
  3.133534137260041E-002
   4.33051184458390     
  4.749764262728379E-002
   1.97654579576840     
  5.686637540678698E-002
  4.101869993999190E-002
  5.151202090592515E-002
  -7.55811832343294     
  -4.97556028176088     
  -8.87614612569965     
  -7.65916490615639     
  -1.66880882390511     
   9.70647870760235     
   4.90621045869785     
 -0.169102413630540     
  -1.64872893952537     
  -2.67854936480622     
 -0.159504138763102     
  -5.31254182968175     
 -0.267256806408743     
  6.785205114682341E-002
  -7.73422150931128     
  7.710892918742397E-002
  6.138682756066446E-002
  7.177315598315344E-002
  -7.28148170873383     
  -2.64856523105131     
  -7.49069188019907     
   9.48371722833958     
  -6.50735792741955     
   4.01802747198987     
   3.31765410721016     
 -8.720156013779626E-002
  -7.84334055807042     
   2.30814551747170     
 -8.581441019637058E-002
  -4.16215762385360     
  -6.89320338971692     
  8.825314367170224E-002
  -5.02716653010766     
  9.739327382674134E-002
  8.181100218332017E-002
  9.208507036989341E-002
  -5.00136341690718     
  0.108697590287753     
  -6.57646641673203     
  0.117732763880691     
  0.102287345024066     
  0.112460543037443     
  -6.75714792501882     
  0.129177208954649     
  -6.76260452850968     
  0.138112761604681     
  0.122807194309863     
  0.132884830157609     
  -6.32222085995673     
   3.32541554158816     
  -3.97389819496494     
  -8.26667685390686     
  0.678631505599516     
   3.61370745007313     
  -7.87480712079090     
  -9.93202684601171     
  -5.05296954167689     
  -3.66505547983837     
  0.660304973267528     
   3.59107658753753     
  -3.35621299513084     
  0.680214384423092     
  -3.69637052906252     
  -3.32627167602335     
  0.645571618974140     
  -7.45221063109699     
  -4.03730179523486     
   4.31605348030166     
  -7.52770494456807     
  -1.38267513322012     
  0.674487839230592     
   3.51904741311549     
   3.69826260131856     
  -4.69018486766034     
  -4.19300942179339     
  -7.09102579694825     
  0.655515753053366     
  -7.29365401641072     
   4.05914945825069     
  0.675209099578437     
  -7.01129734243703     
  -7.27914546553351     
  0.641849183873028     
  -7.62242598152360     
   3.76653805601220     
  -6.88216829824682     
   4.84573318631201     
  0.628921710887047     
   2.98798848822534     
  0.631567934078394     
   3.27813430477990     
  0.143368145605636     
  0.153345372664732     
  -2.39969855935237     
  0.149690052644515     
  -4.00697652471526     
  0.158521760497084     
  0.163958900349917     
  0.173852234122764     
   3.34711585994626     
  0.170225324023785     
  -6.81760098682941     
  0.178969455412306     
  0.190788207946714     
  -4.45549996164346     
  0.199451774251127     
  0.184584037817288     
  0.194399722814242     
  -6.15611033090830     