 TITLE="euler solver on unstructured grid" 
 VARIABLES= "X" "Y"  "P" "Rou" "U"  "V"  "nuT"
 ZONE NODES=       11173  ELEMENTS=       18178  ZONETYPE=FEQUADRILATERAL
 DATAPACKING=BLOCK
 VARLOCATION=([3-7]=CELLCENTERED)
 -0.306990448766615     
 -0.302194728516262     
 -0.302324583995021     
 -0.306788175187845     
  -7.84150344575698     
  -8.55659290732714     
 -0.301282959080798     
   8.81434529760697     
   8.95590602417769     
 -0.312116900922823     
   8.23385913150520     
  -9.36316734361369     
 -0.310053705262477     
   8.36290560199322     
   8.94159091741339     
   5.85461201388825     
  -9.23273202735633     
  -9.97459670331974     
 -0.317595621097661     
  -9.18407815452580     
   9.45210925995507     
 -0.314555399228926     
   10.1112863845696     
  -10.2948763099916     
 -0.317794360929330     
  -9.54477149467842     
   9.35049010950782     
 -0.311234592814368     
   9.55698933344175     
  -8.76258334708061     
 -0.306900311746212     
   6.47775641759297     
  -6.85758930852899     
   8.02238631492895     
  -6.87617421710832     
  -7.53818739834810     
 -0.301698879192402     
  -6.35600275318367     
   8.22677205067163     
 -0.311229009349441     
   6.11714002440458     
  -8.47270897527999     
   7.25909941010518     
   5.92557141968423     
   5.82542467377676     
 -0.306556859538444     
   4.96679708982006     
  -7.99935896566124     
 -0.313422745221511     
   5.38596018101274     
  -6.18132511330977     
   7.08112433009173     
   5.91387097318281     
   8.30820937433079     
 -0.305772649543954     
   8.79992271947684     
  -5.77457309760913     
 -0.310445531848759     
   7.14823003473160     
  -8.84310399006679     
 -0.300286518402486     
  -6.55687165728934     
  -5.46542708771651     
  -9.46311740183024     
   6.69191818797871     
  -8.85852843335552     
   6.57206649300981     
   9.26584495561734     
  -6.20034914083585     
  -6.68149230448289     
  -6.61813014563313     
  -9.83747814371932     
 -0.283370702718651     
 -0.282897614701143     
 -0.278101991793575     
 -0.288903457550845     
  -7.94531225348330     
  -7.32520651368263     
 -0.287517733057584     
  -8.45041603371607     
  -7.41206909847786     
 -0.283658667695590     
  -9.40265825459291     
  -7.00303050326119     
 -0.289024332511146     
  -8.95251581027610     
  -9.53188264781542     
 -0.293161108130498     
   9.74935908871180     
  -10.1307836690182     
   7.47490707017301     
   6.73738216515574     
   5.57341358413884     
 -0.296717088936663     
   8.60445448190286     
   6.21007408939980     
 -0.283527389327612     
  -10.0602888937798     
  -8.98383667183382     
 -0.279605347437806     
  -8.47876454022640     
   8.56695257397153     
 -0.277317651054041     
  -9.01248696129905     
   8.39567861496218     
 -0.272976807885423     
   8.95630802218239     
   8.88795709909513     
   9.23873262870554     
   7.98317033688244     
   6.90868085811210     
   5.27372237791870     
  -9.50023978850205     
  -7.97396788394037     
  -5.82715154581958     
  -7.79478768880270     
  -7.95740115318708     
 -0.287365108379131     
  -8.50736889618666     
   7.80198555130002     
 -0.287024817059703     
 -0.281615172017074     
 -0.286080731102705     
 -0.292289286982077     
  -7.49841523932683     
  -8.61565867174334     
 -0.291394954327856     
  -7.10503389050028     
   8.22439567083252     
 -0.287826032943090     
  -7.01314317016870     
   7.54049918157634     
 -0.293344277969336     
   7.73806895616253     
   7.64061396458242     
 -0.289511511854398     
  -7.21613585790933     
   5.94754695236492     
 -0.298595598498013     
   6.95099669530546     
   7.81189622310819     
  -8.76581322118595     
   5.65803060761543     
  -8.00149904173365     
 -0.300648077047165     
   7.10448903809344     
   5.36866095606500     
 -0.283500890738100     
  -8.12190703770271     
   7.34467095589524     
   6.38566032948426     
  -7.72723412114672     
   9.47566682051916     
 -0.276792978777117     
   8.16088255841904     
   8.88827067704437     
 -0.281623776970833     
   8.41533680929585     
   6.90437335511871     
   7.22808824970998     
   5.00567413324788     
   7.05685551503235     
  -9.54000380048790     
  -7.46882583638594     
  -7.44037918282343     
 -0.290184280847646     
  -9.43645507462789     
  -5.29410133907630     
 -0.296871214686460     
   6.55734852356159     
 -0.293870438649397     
  -7.64049287267754     
  -6.04392826625420     
  -5.62400875412316     
 -0.297038883694842     
  -5.10920993322981     
  -9.13460153417482     
 -0.293975160097928     
 -0.291454110775517     
   7.70758573366798     
  -9.04112193629904     
  -7.52100040822570     
   7.68958970334959     
 -0.295065975943263     
   5.04995999493940     
   8.82452913224216     
 -0.307027563419324     
 -0.299551118045741     
  -8.53691045591543     
   9.62558086527099     
   8.52176683102712     
   5.44165810719074     
 -0.304908122956075     
  -6.84307180901976     
   5.40389434266897     
  -10.0237647688180     
  -6.91256488600152     
   4.76080368222252     
   7.46911449539520     
   6.96482299736778     
  -7.10717031275246     
  -8.23653501756979     
   6.66337011984905     
 -0.298056530676993     
 -0.302149264266683     
  -5.34358325462009     
  -6.46952943256826     
 -0.304951119806722     
   6.35742468431863     
  -9.59813144604697     
  -8.25303225341393     
  -10.1653748902124     
   6.37923725978916     
  -8.17884868864328     
  -5.92291396924188     
  -9.98835975226820     
 -0.298136698611878     
  -10.1155461290596     
  -7.04117864842115     
 -0.304610339003302     
  -9.06495956759413     
  -1.97431924585088     
   6.67719286571595     
   5.95774660394574     
   5.25855670911183     
   6.16453327095244     
   4.77215887424402     
  -1.41108725017812     
   4.72292365397155     
  -1.83064595177629     
  -6.47178729634611     
  -7.77743741657385     
  -6.62734068602675     
   10.0621183190714     
 -0.276460261985629     
 -0.271558248327238     
   6.64429257371702     
   7.87680473505713     
   8.96926200848410     
   6.10018545795040     
 -0.272179216138756     
  -9.85987121715722     
   7.57066272033941     
 -0.278473193921201     
  -8.00281690941627     
  -9.18884841389986     
 -0.272763566450943     
  -6.05849316888452     
  -7.71168956573256     
 -0.267940814814592     
  -7.25932177879953     
   5.71456969683772     
 -0.264715026813423     
   7.91056044126292     
  -10.0401541239840     
 -0.259373266446332     
   8.07770832869795     
   6.55633975761246     
 -0.279572302833067     
   4.64894014725618     
   8.25157103976714     
 -0.265798343855364     
  -8.35009382758730     
   8.71191409591500     
  -10.5584674748530     
   7.57342266269397     
   5.30476567478038     
   7.99424289496472     
   5.36178533147667     
   6.38352693263437     
  -9.44088238627928     
  -10.6240248955173     
  -8.85094713567374     
  -6.60497468687716     
  -9.36661270693818     
  -5.82108371070569     
 -0.272135989293765     
   4.74858411779651     
 -0.267458320645295     
  -6.87286216443950     
   1.95572778738519     
  0.353210604236867     
 -0.267618621688896     
 -2.248098357155970E-002
   9.86954339678587     
 -0.273640994217480     
 -4.721167880345656E-003
   1.62054317531116     
 -0.267719198286604     
  -4.04167398048976     
   4.49411648388525     
 -0.263166809234190     
   9.37511873586337     
  -4.90462663159394     
 -0.259257375894602     
   9.02284757186094     
   8.89007043912745     
 -0.269693561026382     
  -9.95589979537761     
   1.42117309056927     
 -0.254736060601695     
   1.85642856661011     
  -9.86431671543095     
 -0.261426493595470     
  -9.86011661817295     
  -4.56897259811223     
  -3.32013015630829     
  -4.54462775309005     
  -9.76031496082956     
  -8.54479930005883     
   3.29337463274154     
  -4.19792146310184     
  -7.26875606399296     
  -5.10731602844886     
   9.33750869512542     
  -2.43403294539295     
  -10.0296791627686     
  -5.16121662293111     
 -0.302084647690132     
   6.82087470950597     
   7.02303613633531     
 -0.309485092583972     
  -9.44995431250972     
   5.15238784455063     
 -0.304920547787447     
   8.76291921510144     
   1.34711251001183     
  -6.52075551462044     
  0.974921985992621     
  -5.06635797647473     
   5.55022897665507     
  -9.56980651261479     
  -9.83946240619038     
   4.26566341607433     
   7.50266660430699     
   5.56982589165177     
  -10.0593074387899     
   7.48701601984785     
  -9.53719563493368     
 -0.296216247493158     
   5.97796973903391     
   8.05308984248060     
  -10.2088206987147     
  0.413028709973842     
  -9.12645218754452     
  -10.6568036058494     
 -0.374681043881558     
  0.684051122839858     
 -0.302827766042573     
  -10.0565434791501     
  -1.02125444731454     
 -0.297774825945709     
   3.47804377818892     
  -4.12872062981944     
  -6.17825843122271     
   5.06482064167535     
  -3.30797274980588     
   9.55199964517496     
  -3.68324189719765     
   7.12803435894260     
 -0.307599109704689     
  -10.5420781196869     
  -3.68751818884791     
 -0.258250367276766     
 -0.252108032158073     
   2.16869709390807     
 -0.252219823752443     
  -9.42547458611026     
   6.30648294772594     
 -0.258228781710931     
   9.94739283290889     
   6.88811798234504     
 -0.253759797278999     
 -0.110723501366269     
  -9.93079673172760     
 -0.246602431327066     
   7.08543236269065     
  -7.63094958397043     
 -0.243777040520113     
   6.69595765520830     
   9.58397006266010     
 -0.246152229269341     
  -7.17907865013274     
  -6.07350899540610     
 -0.234152941589174     
  -7.56855335761509     
   9.47824754753818     
 -0.256000323990736     
   9.46185819237210     
   9.27836359974202     
 -0.260538970089581     
   1.49517070506395     
  -8.34750277257980     
   5.24134713604614     
  -10.0073754136519     
  -8.73697748006217     
   6.63356142885296     
 -0.464961514403932     
  -9.99098605848581     
   4.84726784131250     
  -1.95106972383262     
  -3.98652341998904     
  -7.95802806509745     
 -0.983415695034424     
  -5.62713389180156     
   5.13083854132261     
  0.837108229130937     
  -5.68099034361719     
  -2.02427710489827     
   5.28760261829050     
   5.73793036673223     
 -0.266864430456536     
  -6.10867491011937     
   2.88525441963485     
 -0.253092214713796     
  -9.87435852293739     
 -0.247207760426513     
 -0.246846389992209     
   4.36023216656445     
   8.89122996367947     
 -0.252692791644588     
   4.25736809776508     
   6.40339294702640     
   3.35247075288966     
  -9.89264992748937     
  -8.40989899893515     
 -0.247869899164556     
  -8.02042429145280     
  -5.95620112138653     
 -0.241028355872501     
  -5.57275758719524     
  -7.24147487648808     
 -0.238612404567783     
  -4.53704855987240     
  -10.6404142506833     
 -0.240030510237614     
   6.24208024367794     
   9.42761747684328     
 -0.228721613022670     
  -8.75314008413655     
   9.14268393736278     
 -0.249386490059001     
   6.13285428583968     
  -9.09455078942221     
 -0.254551717836174     
   4.77798133176630     
   5.81586429220976     
   3.60244946711912     
  -9.51592689502688     
   8.79338459184561     
   8.64673426715910     
   8.99939695392739     
   9.00120615315775     
  -8.79937370641751     
   9.21217609778682     
   7.86438177765537     
   3.88558031897694     
  -9.55232496523514     
  -9.87626057232329     
   1.57904613747674     
   9.56123180999897     
  -9.94328907505788     
 -0.260403146522211     
   9.28345382725974     
   8.85299648251630     
   7.41251084381767     
  -8.14008740716975     
   5.10167620550634     
  -9.62226936902269     
  -5.95225875231294     
   5.43035410933500     
 -0.321901341751015     
   4.96336907192243     
   1.27422504776144     
 -0.306643237589291     
  -5.68357604655866     
   5.13805882527888     
   5.52753353276123     
   7.39937360473347     
   5.78973058487828     
   9.59182281816737     
   10.0129502535732     
  -3.67741770007811     
 -0.771111104212446     
   3.09583007841971     
 -9.303170057770602E-002
  -5.74335287293476     
   3.34842318400756     
  -3.83808611368517     
  -4.97740621723929     
  -1.09852779716805     
   2.99819216656351     
 -0.325111148683300     
   5.48919289879780     
  -9.62030173134299     
  -4.56773616489671     
  -1.64848666110416     
  -6.69313836291193     
 -0.240217100028800     
   9.01062401331109     
  -9.05686003727405     
 -0.247203576469632     
   4.53742213044679     
  -6.85200016900572     
 -0.315477444794625     
   4.91443426772915     
  0.723406977833482     
 -0.248671742827655     
  -2.65973989657183     
   8.72655358243845     
 -0.256713771682253     
  -6.46252546152337     
  -9.90540160250923     
   2.93115719479582     
   2.97015144956527     
  -5.50220955327684     
   5.18037727479204     
   3.80746254033422     
  -10.5912461851851     
   9.33399678007191     
  -4.08032007865019     
  -6.07591329480046     
  -3.41459343285921     
   2.22479037768953     
  -5.74876482663999     
 -0.893782282697034     
  -9.08100569385236     
  -9.88147585192598     
 -0.320007009772261     
   8.62673728938071     
  -7.38951073894021     
  -5.34639909145682     
   6.49429898296377     
   8.28520326085226     
 -0.312872068591949     
  -5.75583334358669     
  -4.28556379530513     
   2.69577977120624     
  -4.13889162651322     
   4.48772439147291     
 -0.326780590679889     
 -0.571736514208363     
   2.41344623066064     
   4.40584840770671     
 -0.520902754673087     
  -7.16401318291643     
   2.72945343854184     
  -7.51138609739839     
  -5.42028822770875     
 -0.227108104056115     
  -5.19341733021689     
  -1.49112183634833     
 -0.233521879124976     
  -9.92542863782151     
 -0.302166310724880     
  -5.79111237965792     
   5.20539652897512     
   4.27879349441034     
 -0.320208968283043     
   2.44848187615677     
  -9.94181799298759     
 -0.332644282267520     
  -7.23027758439929     
   4.11285120401904     
 -0.331380601539726     
  -5.72360208117351     
   5.23663399585054     
 -0.298181941700445     
   3.77389592138974     
  -3.69782430513321     
   1.39596311358906     
  -4.01759401480978     
   9.31435399587744     
   2.81392671707769     
   1.71538859039636     
  -5.59885992803665     
   4.74515245679933     
  -6.40012923516803     
   5.03531396594281     
 -0.340437920947129     
   4.67241918523108     
   2.62590096237413     
 -0.230751019555749     
  0.641136514870357     
 -8.482328112615489E-002
 -0.223172894682929     
  -9.39321245142590     
   1.15110002161957     
   1.59056065464596     
  0.762840298070353     
   3.19553475610162     
   9.22696170630464     
   5.91700824024359     
  0.331077732836725     
   4.62824201583603     
  -3.24885218669528     
   5.05500237172649     
 -0.217290731173347     
  0.940023313495649     
   1.98451079818495     
 -0.222991811680899     
  -9.95820734815366     
  0.961825523701722     
 -0.335410108458652     
  -10.4929100541887     
  -7.21072509423025     
 -0.331564429714918     
   2.82268594809785     
  -7.93580122631167     
 -0.324802164230704     
  -8.95659551131835     
  -4.03840553719508     
   8.97040967374709     
   7.25404565274286     
  -3.02578082922558     
 -0.343661896903016     
   5.01902462479713     
  -7.84926619641567     
  -8.80671732238672     
  -7.52999934637458     
   2.78893914215783     
 -0.353116066689682     
  -7.55991862931844     
  -10.2614104156733     
  -9.20418983959579     
  -8.79560430399230     
  -7.64151930278177     
   4.97776648490437     
   2.83615625697368     
  -9.82406581026356     
 -0.325139600224196     
  -9.59348072416003     
   3.47565478241867     
  -7.39609587736205     
  -10.5256887645208     
  -8.17952959032290     
 -0.221986070303785     
 -0.210161284353183     
  -9.84667686295424     
  -8.82894335917443     
  -8.34331792344384     
   9.96378218807497     
 -0.210462531335190     
  -8.62159944260187     
  -8.49697308879514     
 -0.195715612781990     
  -8.86431937793399     
  -9.39677911402624     
  -8.99063351049056     
  -6.77105110210164     
  -9.48645059689767     
 -0.215468423779523     
  -4.91718502894508     
 -0.204193063971885     
  -9.28312160327800     
  -8.84005637756831     
  -9.10359328947145     
 -0.203407110012944     
  -8.78449696978038     
  -8.89986093868861     
 -0.189488300308154     
  -9.00054184215647     
  -8.16841657188519     
  -5.01279439660611     
  -8.77325984542566     
  -9.40517644585588     
 -0.308284674828326     
  -6.19886950881852     
  -1.60400047375099     
 -0.298990530554182     
 -0.404252972356225     
  -2.66796455721984     
  -1.10370297742511     
  -9.25317010619478     
  -1.26202018879970     
 -0.323075931009782     
  -4.43867826663105     
  -9.62298350908100     
 -0.313588606140376     
  -5.76025022240454     
  -8.78873025998497     
 -0.313779544428268     
  -8.74791357515843     
  -5.33133529044376     
  -5.40712453033071     
   4.87068022967843     
  -9.73973770233691     
  0.627191987249063     
   5.19454806920978     
  -8.48756694715802     
  -10.2921404561517     
  -8.81783034078060     
  -5.35250906754810     
   10.0293396087393     
  -9.63738026102012     
  -9.24780844899326     
  -4.98475995774991     
  -8.89742963074693     
  -1.23638805324969     
 -0.283978483108645     
   5.03198418652752     
  -3.50214168994925     
  -9.49433164618429     
   8.58093496626474     
  -9.38258769791805     
  -9.66715375493654     
  -4.35824965503188     
  -3.65491817334888     
 -0.279978944977569     
  -8.76189293092807     
   9.11945633788103     
  -7.89340952827338     
  0.837829559359923     
   9.32141060986944     
 -0.634423182433780     
   5.27338473341456     
  -8.75782190650178     
 -0.195209214028102     
  -7.98437633740694     
  -9.52833783769073     
 -0.179825790664262     
  -9.44156598680586     
   1.07723316588958     
 -0.202562844963136     
  -7.55806868702002     
  -9.11694764304710     
 -0.187978699716486     
  -3.60180126013991     
  -5.30397691877798     
 -0.173354337670696     
  -3.86090820226023     
  -5.67398411857326     
 -0.194193870518949     
  -9.12870233626009     
  0.378264604580719     
  -9.71364066790654     
  -7.76253867470282     
  -10.3638438839349     
  -8.64285526942714     
  -8.49867996555179     
  -9.45280381590566     
 -0.327912040091169     
  -7.62110931222932     
  -4.60729138472527     
  -10.1717563504601     
  -8.63150777339546     
  -4.58218895176242     
  -8.50518455993526     
  -7.45417761485973     
  -8.87422770771498     
  -5.28280314167083     
  -8.50979298394559     
  -8.72743554757225     
  -4.93310970886124     
  -3.95333347104335     
  -5.59015144623653     
 -0.164027218147150     
  -5.37368284492171     
 -0.156118405566856     
 -0.153160447019839     
  -8.46540065006364     
  -8.76773022833062     
 -0.163095134160839     
  -8.38878783847765     
  -8.43148341686319     
 -0.151822490590637     
  -8.17797188187944     
  -9.24326177560364     
 -0.161005147856302     
  -8.21571563354528     
 -7.648419558534236E-003
 -0.142517553978117     
  0.252541425559946     
  -8.84130334367348     
 -0.138072868136952     
   2.57571061677697     
  -6.09103497755090     
 -0.138141969297298     
  -5.63818980645765     
   1.61231357065537     
 -0.177381271331013     
  -8.47645392876392     
  -8.52004453445117     
 -0.176475480914127     
  -4.40335833357007     
   10.0457289639053     
  -9.16644608792941     
  -8.26245800077542     
  -8.50550413388576     
  -2.91886683952359     
  -8.64141610022409     
   4.09144035622982     
   9.03085706053759     
   2.85117366499511     
   4.36896893935928     
  -8.45421758131553     
   9.33157715624522     
  -4.32730942615736     
 -0.187687598687541     
  -9.01045016726890     
  -5.01759065331854     
 -0.131491845896367     
   1.98623269540167     
  -4.31691127687097     
 -0.119491055708085     
   5.05748630396614     
   1.12882973050445     
   3.11471535726618     
  -9.52419434856701     
  -6.07916600871459     
 -0.121794957949329     
  -7.79815547718981     
  -8.41192348599653     
 -0.110642806144453     
  -6.88044979029443     
   1.82507141524826     
 -0.113902510505996     
  -8.44290472238094     
  -8.15730355349210     
   1.45115229049151     
  -8.27238203263706     
  -5.03876443042208     
 -0.100580791774299     
 -0.732742716373101     
  -8.14623391887136     
 -0.100491027245805     
   4.05539091339811     
  -8.48230078278176     
 -9.802072704829354E-002
  -8.59553203778086     
   4.38685222229780     
  -3.86206272288742     
 -0.918652568498211     
   3.48872045505352     
 -9.380245873237442E-002
  -7.90907249612984     
  -8.13510490563725     
 -8.121046957377137E-002
   4.70701383432132     
   4.34845305235048     
 -8.982383125372184E-002
  -5.55692246761419     
   2.95245934932082     
  -3.36105697656645     
  -2.71250201977415     
  -4.67719991518242     
  -3.58197320210679     
   3.38798351557149     
   3.32646444791492     
   1.28999101044160     
  -8.10544100882573     
  -8.51510197038886     
 -7.349468620668444E-002
  -3.33402157059771     
  -4.53766158784193     
 -0.171446314345046     
 -0.162811411829387     
  -9.04113577623702     
 -0.160779718747045     
  -1.61388287655263     
  -10.5092994093547     
 -0.171496770924467     
  -2.59108615410432     
  -2.34643547897963     
 -0.160467659187966     
  -2.62766162423128     
   1.05454863187763     
 -0.170771908782793     
  -1.64153721677861     
  -4.70072225350738     
 -0.150581861962382     
  -3.27544237814017     
  -1.33207750275565     
 -0.144961546406458     
  -2.96101616186080     
 -0.973313819069749     
 -0.147439707364306     
  -1.95101296846270     
  -1.30318648927756     
 -0.185181494966466     
  -3.45446390380620     
  -2.21654587028120     
 -0.185473609764381     
  -4.06505437936996     
  -2.31819439105610     
   1.33006919292238     
  -2.34718052803310     
  -1.97987420213194     
  -1.67041377492956     
   1.23839444601211     
  -2.68514248674329     
  -9.38105122655567     
  -2.03756301533741     
  -2.28935127434233     
 -0.954206510364249     
  -3.30548338789641     
  -3.27750492499654     
 -0.198208308328453     
  -4.27740183133831     
  -2.65667051422246     
 -0.139375979280892     
  -2.42652902789048     
  -1.44646129486109     
 -0.126548405417074     
   4.84014312653053     
  -8.13613117807964     
  -2.96597133332780     
  -1.75731481980202     
  -2.00874113673748     
 -0.129908614535404     
  -8.37304121148114     
  -1.77429439374012     
 -0.118475815125401     
  -8.06819147049998     
  -8.39869616128705     
 -0.122826273224965     
  -7.79350699983465     
  -7.91138673263874     
  -9.17351906074651     
  -4.71946246123274     
  -7.96751192362124     
 -0.108890483205341     
  -8.11249520836253     
  -8.01974297476662     
 -0.107691974431313     
  -8.12391651380541     
 -0.655417400313736     
 -0.107825773429325     
  -3.02335518664548     
   4.75185508614450     
  -5.37022041873748     
  -6.51005755834343     
  -7.81603561301683     
 -0.101666758111696     
   4.72664359349864     
 -0.993747468934134     
 -8.852974089104698E-002
  -5.54292856345719     
  -8.14022813020609     
 -9.844986264694969E-002
  -8.00517695721426     
  -2.40161834926309     
  -5.41603039632881     
  -8.15119127326282     
   2.68710213012247     
  -9.06866372070461     
  -7.43619145787260     
  -8.82437343535645     
  -7.65645982906467     
 -0.729460603927352     
  -1.38217641571993     
 -8.293428722697986E-002
  -7.85976105508910     
   2.32516454851012     
  0.702643067283781     
  0.705318359144856     
  0.687335984170171     
  0.680398347479922     
   3.16430799573557     
  -1.10456489790077     
  0.728695591838317     
  -7.19971186393477     
  -7.49682282372885     
  0.706522943796127     
  0.690444302360438     
  0.708218368711279     
  0.684804132703393     
   4.00423725764372     
  -6.85839222907307     
  0.731126343824729     
  -7.18867970857158     
   3.91820044763496     
  -8.10221413479755     
  -1.65216029078445     
   4.99396151025936     
  -8.71760290781083     
  -5.68053736095986     
  -4.09346191635069     
   4.41251898433439     
  0.671709455553957     
   3.77406541614963     
  -8.25345938520979     
  -7.76706756218843     
  0.668391853985438     
  0.402589312560554     
  -1.29236731625089     
  -1.23958942631759     
  -6.48973122924650     
  -4.26152446806322     
  -8.44834334308897     
  -2.99552266529271     
  -6.88923623833719     
 -6.173152113149388E-002
  -7.83815317805508     
 -6.914556801787286E-002
   1.50274885816101     
   4.21200922514663     
  -8.53655302059219     
  0.208946664905716     
  -7.65069940730819     
  -2.19773949281460     
  -5.30767579220216     
 -0.306415988003244     
  -10.1140760229104     
  -9.93570233558855     
 -0.362041471012881     
  -9.50851874050237     
  -7.51900280253427     
  -3.64371428313962     
  -9.88820474342322     
  -9.80832238246877     
 -0.340492571725093     
  -9.24302339575265     
  -6.54166329850515     
  -1.66182616039834     
  -2.09225887409611     
   4.09139959390354     
   4.58490586867401     
 -8.367632958078575E-003
 -0.712924555552198     
 -0.130439301183341     
   2.03782925954000     
   3.07913089104902     
 -0.121748366740555     
  -7.80196287460518     
  -3.67250780750841     
 -5.098249370035435E-002
  -9.13676429538359     
 -4.204590804405928E-002
 -5.990511464375953E-002
 -4.953377665339968E-002
   9.22475693700856     
 -0.304537923307117     
   4.03297737802805     
  -9.59897854897122     
 -3.193268123331146E-002
   6.02150134641948     
 -2.223903140114330E-002
 -4.103141195138137E-002
 -2.978015928857343E-002
   3.79985681910960     
  -5.47438458189657     
  -8.86211718702346     
   6.24408672137060     
  -3.61451614877545     
  -9.42196950520539     
  -6.86944330574754     
 -1.185892777731086E-002
  -5.95666372124930     
 -2.318821103473801E-003
 -2.100276904401395E-002
 -9.895059913645763E-003
  -7.72445945483363     
  0.665225981592523     
  0.652010063546611     
  -4.38149450694648     
  0.660342221314384     
  -1.10391889387861     
  0.648477443645175     
  0.700807418134985     
   4.11150818955449     
  -2.14049330743110     
  0.694885532505105     
  -7.48569915963293     
  -7.78724479334132     
  8.299842936782193E-003
  -7.46309738192415     
  1.769410607860521E-002
 -8.710647794405572E-004
  1.009987618338715E-002
  -6.43723322850416     
  2.853319708017735E-002
  -4.80966628316684     
  3.779993347783776E-002
  1.935196441534718E-002
  3.020389462417832E-002
   4.24491788846589     
  4.882656822113423E-002
   1.87666798145551     
  5.795681663932816E-002
  3.965049982988714E-002
  5.037349240538185E-002
  -7.50788978446882     
  -5.05993820776306     
  -8.88413603914620     
  -7.68391781818266     
  -1.74528463464083     
   9.69540650074117     
   4.95331320735836     
 -0.170996497804555     
  -1.73935667588667     
  -2.76337432500928     
 -0.157662699425827     
  -5.39485662129571     
 -0.374640354696735     
  6.916908691922445E-002
  -7.75314877064236     
  7.818651710538674E-002
  6.001244876780788E-002
  7.062950939506926E-002
  -7.28165714499075     
  -2.73801601456090     
  -7.46504933731276     
   9.37991141654173     
  -6.44960820960824     
   3.91231819132724     
   3.43552945524988     
 -8.905262241763599E-002
  -7.80485789301160     
   2.19991463855935     
 -8.388473854176004E-002
  -4.21509707591049     
  -6.84732226423854     
  8.955631796614374E-002
  -5.10228573781168     
  9.845611698781759E-002
  8.043237078268858E-002
  9.093815606338623E-002
  -5.08111198392983     
  0.109985047291738     
  -6.52812371647129     
  0.118779084850240     
  0.100906274445108     
  0.111312085778571     
  -6.80956097834804     
  0.130447196446674     
  -6.80640345949937     
  0.139140811547159     
  0.121425401864597     
  0.131736539149878     
  -6.36853716134253     
   3.42196317538448     
  -4.05990741505656     
  -8.29013611618491     
  0.679193803050189     
   3.71750170308013     
  -7.82704015986845     
  -9.93190242505163     
  -5.12345938959227     
  -3.74845589275754     
  0.661009914514301     
   3.69950249480981     
  -3.43700459836605     
  0.680955512722888     
  -3.77513203766034     
  -3.41168914075442     
  0.646060814179216     
  -7.49382657663445     
  -4.11400480716067     
   4.41058945122346     
  -7.52436236030210     
  -1.46233457403103     
  0.673325165553776     
   3.42584866395913     
   3.78324134298080     
  -4.76736720979849     
  -4.29563081744996     
  -7.10767491753306     
  0.654226984899551     
  -7.31534930102958     
   4.14165936243992     
  0.673866572710761     
  -7.03699515704175     
  -7.29159330898285     
  0.640788762747618     
  -7.63614289004183     
   3.84512166657630     
  -6.88106918870828     
   4.91348930513057     
  0.628091273091371     
   3.03381173867632     
  0.631839095252220     
   3.38402682489887     
  0.141987254364191     
  0.152198743364086     
  -2.47728821915226     
  0.150940914575701     
  -4.08832670198944     
  0.159530015002350     
  0.162580433956036     
  0.172708834347001     
   3.43896106843416     
  0.171455513575543     
  -6.79613454645585     
  0.179956308941595     
  0.191996302182986     
  -4.51620721650659     
  0.200415960548039     
  0.183209391699859     
  0.193260785430981     
  -6.21161997125657     