 TITLE="euler solver on unstructured grid" 
 VARIABLES= "X" "Y"  "P" "Rou" "U"  "V"  "nuT"
 ZONE NODES=       11173  ELEMENTS=       18178  ZONETYPE=FEQUADRILATERAL
 DATAPACKING=BLOCK
 VARLOCATION=([3-7]=CELLCENTERED)
 -0.306719639002543     
 -0.301698800842176     
 -0.302324530397806     
 -0.306135554600125     
  -7.37878650334491     
  -9.18235456189988     
 -0.300286415200926     
   9.58185270908927     
   9.50668257199144     
 -0.311654049601628     
   8.81216831793081     
  -9.99596069605497     
 -0.309060670599371     
   8.88313705694121     
   8.33994447690349     
   5.01369980489082     
  -9.70372421290725     
  -10.5532633206069     
 -0.316786991071620     
  -9.76742482701247     
   8.85911696413202     
 -0.312966880982498     
   9.32547099709741     
  -9.45396331380775     
 -0.317835270850000     
  -8.79662157454782     
   8.81451388285907     
 -0.311199245986665     
   8.91857592850211     
  -9.44456305717300     
 -0.307100991939648     
   5.73859261140228     
  -6.37257150731366     
   8.81621681093472     
  -6.27732681493179     
  -7.01326904928380     
 -0.302194699806005     
  -5.80849007384676     
   8.94696623275296     
 -0.311560603985631     
   5.43136731582425     
  -7.72847099334095     
   6.45506869220830     
   5.16481625670935     
   6.42129234202883     
 -0.307229378680039     
   5.62872692238366     
  -7.21226018386387     
 -0.314232747173841     
   6.01528921957845     
  -6.93638043524762     
   6.33258051917710     
   6.57280736816848     
   8.97710625670457     
 -0.306963104955879     
   9.42094706475720     
  -6.57639055696171     
 -0.311958368655271     
   7.83848117557049     
  -9.58733990011199     
 -0.301282955633905     
  -5.81750646771025     
  -6.20774759678071     
  -9.02286207971054     
   7.34559207296677     
  -8.06714698270326     
   5.77219842230985     
   8.46870120879362     
  -5.59034571108745     
  -7.41259835452842     
  -7.41187196687263     
  -9.34134424772827     
 -0.287024949407304     
 -0.286080839999890     
 -0.281615298256696     
 -0.292289404943458     
  -7.28221174545530     
  -6.57638753872857     
 -0.291395097088207     
  -7.75824529875604     
  -6.72771401040009     
 -0.287826190885173     
  -8.70345846858294     
  -6.45306534575810     
 -0.293344442584127     
  -8.22701604827627     
  -8.87634435749526     
 -0.297042632406391     
   8.90844618923927     
  -9.50342286042657     
   8.31581691606421     
   6.08782123987192     
   6.12490857243169     
 -0.301201322893262     
   8.04823608449526     
   5.58175425188891     
 -0.288567185443711     
  -9.36402438542496     
  -8.31289096233760     
 -0.283501035816683     
  -7.83689496444609     
   7.87828321568414     
 -0.281623942970509     
  -8.39181246262318     
   7.75594232627748     
 -0.276793121064842     
   9.64906070289225     
   8.23321426328837     
   8.54836655282652     
   7.30826654355835     
   6.21018443390113     
   4.70729906567175     
  -10.2009090257759     
  -7.36114310105023     
  -6.29852234025320     
  -8.54964734306211     
  -7.23841450805164     
 -0.290184370767684     
  -7.91579732483673     
   6.96107299706504     
 -0.283370469249232     
 -0.278101766325232     
 -0.282897404933381     
 -0.288903236553474     
  -8.10000014796588     
  -9.17854892907216     
 -0.287517487665459     
  -7.74301599796738     
   7.63359262623158     
 -0.283658408438594     
  -7.60024276056900     
   8.13375795240801     
 -0.289024064651902     
   8.41637424159675     
   7.06357589993913     
 -0.284696803032693     
  -7.90647885133832     
   5.36554696438745     
 -0.294785482706695     
   7.55592046913397     
   7.18592548376271     
  -9.27870877354585     
   5.12281972500018     
  -8.58851721098182     
 -0.296012566210913     
   7.65558541045038     
   4.64222728687947     
 -0.279605102529675     
  -8.65572450093158     
   7.98628638404426     
   5.84026983650152     
  -8.37539697963152     
   9.00951065311172     
 -0.272976568132486     
   7.43297334513010     
   8.41778455445095     
 -0.277317385963170     
   7.61767450077648     
   7.63765734385224     
   6.61588466813682     
   5.54950390907512     
   6.49358498923882     
  -8.93982900582905     
  -6.88506604284668     
  -6.80631974282475     
 -0.287364916069010     
  -9.96842828869043     
  -6.13501157158876     
 -0.294123135500007     
   7.12557287425544     
 -0.291453937940778     
  -8.14583649104255     
  -6.70636397979699     
  -6.31556990824749     
 -0.295065824703119     
  -5.80481537503843     
  -8.61304005954878     
 -0.296625562144740     
 -0.293870507715644     
   6.93850758985042     
  -8.47071654744399     
  -8.07950101660723     
   8.22110125466436     
 -0.297038929964455     
   5.64517583795120     
   8.08352967742567     
 -0.305655633349047     
 -0.298056402891637     
  -7.99559446190788     
   8.88503485351892     
   8.01270914342346     
   4.65609467875522     
 -0.303094646283866     
  -6.18978679204351     
   6.11655743104904     
  -10.5040903328448     
  -6.10925743473552     
   5.47660926171974     
   6.94101406383859     
   6.52131669924950     
  -7.58431909151102     
  -8.91286880329828     
   7.18636113437423     
 -0.299551139885012     
 -0.304020673836748     
  -5.93654269421403     
  -6.96998251389050     
 -0.306489974764622     
   5.91928433438583     
  -9.19951098330397     
  -8.98445722570400     
  -9.77334933628094     
   6.86315870187291     
  -8.97324830835481     
  -5.19341590827163     
  -9.55266507127916     
 -0.300392861055665     
  -9.54937690424592     
  -7.57111705170642     
 -0.307195833795231     
  -9.86680470976210     
  -1.52242421140896     
   6.20690474224992     
   6.40033863171016     
   4.76647892713140     
   6.69603455435408     
   4.23783604634917     
 -0.947877258773479     
   5.49734363626882     
  -1.34248199208566     
  -7.03652025022004     
  -8.48368952354070     
  -7.07371783377318     
   9.37464398485956     
 -0.272135724211564     
 -0.267458067641956     
   6.04586022821876     
   7.38446068914800     
   9.47578175626257     
   5.60775864972249     
 -0.267618345557399     
  -10.6680002920520     
   6.86059179798079     
 -0.273640703398902     
  -7.44028787405355     
  -10.0297579559372     
 -0.267718897878860     
  -5.26833589955392     
  -8.16427986352161     
 -0.263166523190609     
  -8.00701217256205     
   5.26809574953490     
 -0.259257056263293     
   8.38577636996403     
  -10.4876993369241     
 -0.254735782912454     
   8.50850168883529     
   6.99878933498914     
 -0.274001642494054     
   5.10122969450291     
   7.79842235090011     
 -0.261426228026151     
  -8.82283658974137     
   9.16898251015259     
  -9.96933409719019     
   7.12802069886841     
   6.10463877225083     
   8.62578408187930     
   4.69293268319845     
   7.13534190392594     
  -9.61896536592989     
  -9.90377011350733     
  -9.28696702168186     
  -7.28331563983442     
  -9.50781915130901     
  -6.36531301652465     
 -0.276460429810667     
   5.58949444702028     
 -0.271558405771735     
  -6.17114250747326     
   1.14707594014497     
   1.16433516204189     
 -0.272179396572904     
  0.818430191484200     
   9.56723818601206     
 -0.278473386858942     
  0.806848006800860     
  0.835287664491783     
 -0.272763771039912     
  -3.22292084770486     
   5.03063675273975     
 -0.267941006701457     
   9.28493380495821     
  -5.74553693315392     
 -0.264715253552974     
   8.89993186828205     
   9.06876278879187     
 -0.275255605670419     
  -9.99247954321778     
  0.960104707357295     
 -0.259373452992379     
   1.41432081864267     
  -10.0179614106203     
 -0.265798515956322     
  -10.0545184200025     
  -5.38255256708924     
  -3.70836094519931     
  -3.74173239333496     
  -9.83692735987467     
  -8.05378433927880     
   4.09694111505409     
  -3.41950331299111     
  -6.84218100157891     
  -5.90278835441244     
   9.04196662273019     
  -1.96714798632878     
  -9.94337708533942     
  -5.45107872836568     
 -0.299711930171659     
   6.30804985785453     
   6.18212372019535     
 -0.307212690434621     
  -9.66558293695315     
   4.62053165681757     
 -0.301791978545926     
   9.18811460978330     
   2.16196969441585     
  -7.14251112491444     
  0.194510931076860     
  -5.30806909024328     
   4.92438098300093     
  -9.41790999941877     
  -10.0762142076210     
   5.07288252780725     
   8.29316091090232     
   6.06978287453534     
  -9.89267799788178     
   8.23036884866498     
  -8.98320479716972     
 -0.299457050064579     
   6.69545854670455     
   7.51170252543611     
  -9.44434331029107     
   1.17318234092015     
  -8.28553939850322     
  -9.87098812166589     
  0.437839908193891     
   1.46767725976500     
 -0.306490877694917     
  -10.4713083410034     
  -1.51268335191549     
 -0.294465244669059     
   3.77755950126504     
  -3.90712099154731     
  -5.49820316690003     
   5.07292331266710     
  -4.12982723152807     
   9.88481372724370     
  -4.48165535790168     
   7.60603925454072     
  0.149468223775433     
  -9.98572509311091     
  -4.52842870618136     
 -0.253091911193556     
 -0.247207470880704     
   2.96109928566661     
 -0.246846076784162     
  -9.84542797268922     
   7.14739300075967     
 -0.252692469248824     
   9.48938095630458     
   7.68407802545200     
 -0.247869559877397     
 -0.921869034709656     
  -9.87224113423758     
 -0.241028033634891     
   7.92634227762935     
  -8.47185940219784     
 -0.238612103289474     
   7.53686763919451     
   9.16097300454820     
 -0.240030160715791     
  -6.33816620632899     
  -5.58850871969942     
 -0.228721300124765     
  -6.72764084476383     
   9.95857320827631     
 -0.249386114201837     
   9.97496420419703     
   9.47471331243069     
 -0.254551372482698     
   1.06857599198414     
  -7.50659012163352     
   5.68939236874712     
  -10.5204813287655     
  -7.89606476006837     
   5.79264908176051     
  -1.24815097453968     
  -10.5368723246862     
   5.34118632094639     
  -1.15132930393731     
  -3.29552357087489     
  -7.11711548319867     
  -1.44575271078374     
  -6.04787607884840     
   5.23822810519305     
   1.64833987882768     
  -5.23450587347290     
  -2.51663847111894     
   4.89563294714629     
   6.49112758700908     
 -0.260402776361462     
  -6.81984316758133     
   3.15418750194908     
 -0.258250580144309     
  -10.1791731258794     
 -0.252108233183340     
 -0.252220048484193     
   4.09737805759536     
   9.17605907292642     
 -0.258229013528637     
   4.02987199169053     
   7.01799294445397     
   3.10242172813789     
  -10.6352183002105     
  -9.25080867906753     
 -0.253760047635398     
  -8.86133404063269     
  -5.93799950681136     
 -0.246602667115693     
  -5.70103696650885     
  -8.08238476376299     
 -0.243777256278645     
  -4.28682234443070     
  -9.88737911758661     
 -0.246152492598898     
   5.97010995338840     
   9.29593164567506     
 -0.234153172426973     
  -8.48748341193669     
   8.93721718945953     
 -0.256000610251064     
   5.88888327968332     
  -8.81423331272586     
 -0.260539224125882     
   4.85595804424035     
   5.55960461996945     
   3.31816844202430     
  -8.67501403693806     
   9.16221807126041     
   8.74285089306221     
   9.33613563989626     
   9.09729420600842     
  -9.64028331750238     
   9.51733973955889     
   8.70529155449905     
   3.63122716333702     
  -9.82656375012181     
  -10.6516092961312     
  0.959207403332346     
   9.34899640115185     
  -9.74365491595960     
 -0.266864707141346     
   9.64995059728415     
   8.92241898574355     
   6.57159835863019     
  -8.24232556738869     
   4.46817801892663     
  -9.43852895100259     
  -6.55594396959352     
   5.57263149701310     
 -0.322921658203954     
   5.11113782080357     
  0.462277928110518     
 -0.302589287242583     
  -6.52448621002361     
   5.97896908545513     
   6.36844372388998     
   6.73823617347531     
   5.46774136571856     
   9.21860839332822     
   9.42381697262171     
  -3.43902232931553     
  -1.53364433393086     
   3.38915997486204     
  0.532612600431416     
  -5.62705587199124     
   3.83039490492352     
  -3.48767614264643     
  -5.54939992170192     
 -0.610331403137540     
   2.22640851751027     
 -0.324254847526204     
   5.07855419196292     
  -8.80879666591153     
  -4.21361185935558     
  -2.13631859083185     
  -6.51115380434068     
 -0.247203882975317     
   9.24223141333523     
  -8.80862309115554     
 -0.240216707111382     
   5.16683363577020     
  -7.69291012532815     
 -0.313024317450169     
   4.95752419456895     
 -8.087410568031272E-002
 -0.256714129431703     
  -3.44241701418094     
   8.93131494229042     
 -0.248671295481600     
  -7.30343548689330     
  -9.06448867537291     
   2.12301185511988     
   3.45376380399572     
  -5.76798059370301     
   5.24904950697656     
   2.99562124206748     
  -9.93655210534876     
   9.34640829993170     
  -3.82602122684012     
  -6.21496267549246     
  -3.07213349821834     
   1.47538452838101     
  -5.11767117906478     
 -0.440930862392702     
  -8.61022403925964     
  -9.75661076569293     
 -0.322136692343421     
   8.19973276886313     
  -8.19242315916807     
  -5.86205543470065     
   7.19647274333243     
   7.86814928290843     
 -0.308074506947619     
  -5.84724272739860     
  -4.63575195382925     
   2.46497483955130     
  -4.46231285691384     
   5.17174004616999     
 -0.324615243582674     
  -1.05452429709225     
   3.11546299492742     
   5.14273153609199     
  0.173480830206757     
  -7.59762309628543     
   3.02480930078423     
  -6.71889987723523     
  -5.03617081921845     
 -0.233522159338586     
  -4.78808525423876     
 -0.991709022016948     
 -0.227107742180326     
  -10.6024363083691     
  0.353830213244218     
  -5.22279853339275     
   4.75688029072716     
   3.92640441670657     
 -0.316798659040947     
   2.19924946539900     
  -10.5860453124484     
 -0.334011033783502     
  -6.84801827808328     
   3.30345983033172     
  0.437135860870478     
  -5.20012007333631     
   5.20817677677573     
 -0.292334782566059     
   2.98864644967919     
  -3.05715432563864     
   2.17253157102580     
  -3.35848016410766     
   10.1224831674835     
   2.55480761993379     
   2.49891512003289     
  -5.97737695526850     
   4.16901135536412     
  -5.55921692945930     
   4.23533693831447     
 -0.339527759620610     
   3.89961701174558     
   3.30119381930019     
 -0.223172475119469     
   1.28230970407834     
  0.597449165819389     
 -0.230751358645906     
  -10.1453946037553     
   1.75874006475315     
  0.938860943108005     
   1.37018449648086     
   2.74254692334151     
   8.83051933192376     
   6.75791836232482     
  0.950325243274749     
   3.81306227892185     
  -3.70780648071414     
   4.45541523213677     
 -0.222992058023863     
   1.51550117491325     
   1.35558995455913     
 -0.217290406775472     
  -10.5696543165277     
   1.60192995313389     
 -0.337771130536526     
  -10.0348980808731     
  -7.60997599873078     
 -0.331789255536534     
   2.32279804056634     
  -7.51939459589419     
 -0.318457330015467     
  -8.52941557406157     
  -3.41053794682621     
   8.12949691236958     
   6.77146486849664     
  -2.21504343064852     
 -0.340322104337310     
   4.26485126139112     
  -8.21313053184717     
  -9.11751889789429     
  -7.91155834614618     
   3.49209495976115     
 -0.354743910087941     
  -7.15765389729765     
  -10.2664208950475     
  -8.82812766772552     
  -9.07494399249595     
  -7.21412080248013     
   4.25383093139135     
   2.30364204595794     
  -9.45640412904640     
 -0.328480131476931     
  -9.58532011524567     
   2.99573302130041     
  -7.25861315344457     
  -10.0021160890316     
  -8.55716822611945     
 -0.215468058758714     
 -0.204192728500514     
  -9.85107788772251     
  -9.20266870868980     
  -8.47312736994935     
   9.47298996038386     
 -0.203406720164155     
  -8.68417032548965     
  -8.59225563420184     
 -0.189487954451748     
  -8.95005999085002     
  -9.13320581849369     
  -9.04625310694244     
  -6.34213553452727     
  -9.19026807069618     
 -0.221986357771050     
  -5.51826721761488     
 -0.210161546366289     
  -9.36272418205870     
  -9.24524361408758     
  -9.33372145588716     
 -0.210462847811645     
  -9.03231987905566     
  -8.50645097748989     
 -0.195715890348028     
  -8.97274967529857     
  -8.51459332067768     
  -5.64245254983449     
  -8.98956302014679     
  -9.37309527536703     
 -0.312928119225779     
  -6.36629746781268     
 -0.785253662296387     
 -0.304607429183330     
  -1.14872212898045     
  -1.85773178006341     
  -1.88065290716644     
  -9.16513590539002     
 -0.465526790061166     
 -0.328187607018191     
  -4.74028456243175     
  -9.52570396392609     
 -0.317656735964993     
  -5.93698901025698     
  -8.49038944904275     
 -0.316823363018816     
  -8.78036344158207     
  -4.66161325428464     
  -6.05886489386571     
   4.84848752987360     
  -9.46153569697291     
   1.35356297011639     
   5.94371852515548     
  -8.81605610930814     
  -10.2356877781541     
  -9.16009380329208     
  -4.71417693185622     
   9.40742597670099     
  -9.97448503569512     
  -9.07228727976734     
  -4.30107956386757     
  -8.72739365640115     
 -0.575342618241675     
 -0.276942577845166     
   4.61995110253076     
  -3.11341800316527     
  -9.59716970385230     
   7.74002227393474     
  -9.17911206348100     
  -9.45188866391509     
  -3.71203839143138     
  -3.34403710380618     
 -0.286641857103241     
  -8.94667341576921     
   9.16266379200615     
  -7.88647397963504     
   1.59114808739201     
   9.39530489032004     
  0.149289840002331     
   5.49949258363504     
  -8.70686000949629     
 -0.187978303823015     
  -8.03287774695984     
  -9.54491274423744     
 -0.173353982432362     
  -9.49005173112569     
   1.80241777444103     
 -0.194193416436526     
  -7.97335665825803     
  -9.14244622303486     
 -0.195209541988608     
  -4.04608538182796     
  -4.60234620760455     
 -0.179826083289522     
  -3.07651685738078     
  -4.98037940440847     
 -0.202563228707067     
  -8.81561719245104     
 -0.443143346977534     
  -9.46481013900901     
  -7.50683498320316     
  -10.1639771720695     
  -8.44702554827327     
  -8.85863101470580     
  -9.76045514263097     
 -0.323301021273919     
  -7.25072261999536     
  -3.87814955747849     
  -9.82159734572196     
  -8.61066689318223     
  -3.81867164550093     
  -8.51446565615711     
  -7.11118320694934     
  -8.87655655767449     
  -4.54978253003052     
  -8.90120592010351     
  -8.84348211241833     
  -4.18625258156282     
  -3.23051032276246     
  -4.81200916144071     
 -0.171446655974603     
  -4.76674060973815     
 -0.162811718580617     
 -0.160780072305245     
  -8.73091830219508     
  -8.63335656800738     
 -0.171497161813730     
  -8.34477722813661     
  -8.60251293833169     
 -0.160468064244204     
  -7.84433188411595     
  -9.23863933912726     
 -0.170772368253538     
  -7.85058712175129     
  0.739209424461250     
 -0.150582239644456     
  0.981001861954570     
  -8.98691805567311     
 -0.144961866133982     
   3.30559573928880     
  -6.51360817197932     
 -0.147440147452721     
  -4.97855137459212     
   2.36656711590788     
 -0.185181853272307     
  -8.77348120391016     
  -8.17226381198540     
 -0.185474028086360     
  -3.81990272912559     
   9.39103498078028     
  -8.82187243008989     
  -8.24857014299080     
  -8.93083643082755     
  -3.72439055352688     
  -8.53716345648271     
   4.62918303365706     
   9.01473608832612     
   3.64604871094300     
   3.64809687009294     
  -8.68822265509926     
   9.09401062443456     
  -3.64907433510771     
 -0.198208800741281     
  -8.89924623670486     
  -4.36625091074156     
 -0.139376349914886     
   2.74166698999560     
  -4.58135773803293     
 -0.126548736866831     
   4.36285388354675     
   1.79941871372635     
   3.87805453319971     
  -9.19652330833505     
  -6.47013868146335     
 -0.129908998357051     
  -7.51014471819998     
  -8.16077794897803     
 -0.118476186901063     
  -7.26592451353851     
   2.55261752250849     
 -0.122826698924269     
  -8.64539426250507     
  -8.47201841528067     
   2.17751764840217     
  -8.17508067575022     
  -4.41881458831207     
 -0.108890880583157     
 -7.857733055283822E-002
  -8.42946481470189     
 -0.107692316424580     
   3.35307797525749     
  -8.16600857434666     
 -0.107826245979183     
  -8.18477428725386     
   3.60347388060825     
  -3.58411352142245     
 -0.291202889446558     
   4.25314770088626     
 -0.101667134436360     
  -8.31086598302132     
  -8.38683037934018     
 -8.853009221472696E-002
   4.00059935125041     
   3.59569084302282     
 -9.845027773831287E-002
  -4.83482671602895     
   3.68347184467533     
  -2.70769808609243     
  -2.06514257230544     
  -4.01242058942951     
  -2.81251143905549     
   2.62337093826133     
   4.05856501299990     
   1.98846818100879     
  -7.83575205781214     
  -8.44097034334502     
 -8.293474586474989E-002
  -2.64914541129039     
  -4.14601870109751     
 -0.164026817043609     
 -0.156118042274574     
  -8.83408793047619     
 -0.153160037805170     
 -0.834541849934540     
  -10.0185070849523     
 -0.163094683953891     
  -1.80892612715287     
  -1.53065793575964     
 -0.151822030170451     
  -1.88615188540676     
   1.83650085781939     
 -0.161004629566899     
 -0.894102485293363     
  -4.06764532259212     
 -0.142517124334299     
  -2.52744635336191     
 -0.603549785096247     
 -0.138072498232045     
  -2.19695960972958     
 -0.264707694389969     
 -0.138141478579910     
  -1.18467216675661     
 -0.543339526024716     
 -0.177380848748709     
  -3.18121012755815     
  -1.43567490974992     
 -0.176474998424480     
  -3.75125972882326     
  -1.59558805036004     
   1.96817766985379     
  -1.65591907068809     
  -1.24485292714594     
 -0.954298404466308     
   1.99146724191105     
  -2.00636834574643     
  -9.62512935735453     
  -1.36524860320447     
  -1.53542515769290     
 -0.274765127027344     
  -2.58906151445370     
  -2.49700542672758     
 -0.187687037861665     
  -3.99464203522882     
  -1.94650666799048     
 -0.131491427241928     
  -1.82917497403522     
 -0.843136066849794     
 -0.119490680639546     
   4.53567100367822     
  -8.15236495194267     
  -2.23687838925936     
  -1.16622412951300     
  -1.30503904311400     
 -0.121794529504747     
  -8.15433502390492     
  -1.21405924668714     
 -0.110642393749797     
  -7.83087572798235     
  -8.27127378778836     
 -0.113902042838541     
  -7.99995463184793     
  -7.52891043151670     
  -8.76879651978600     
  -4.11764990822399     
  -7.78868437788823     
 -0.100580357260644     
  -8.30123378510699     
  -7.98268501845992     
 -0.100490648345089     
  -8.34411510920219     
  9.793500527625848E-002
 -9.802021800520914E-002
  -2.35725041764427     
   4.14147810198168     
  -4.85484637399342     
  -6.91383395879452     
  -8.08545940766565     
 -9.380204775420764E-002
   4.05278651470968     
 -0.252807405493940     
 -8.121008815792172E-002
  -5.05378725520042     
  -7.83807664647283     
 -8.982338278450479E-002
  -7.88199537498447     
  -1.77297540677808     
  -4.87186796231091     
  -7.99682940533905     
   1.99034076664242     
  -9.17995558144671     
  -7.55042820774332     
  -8.49394050221906     
  -7.71032216276760     
 -0.129892875018321     
 -0.808698563923294     
 -7.349419983660987E-002
  -7.99288008473485     
   1.64369384378601     
  0.706523013094205     
  0.708218388574201     
  0.690444335819869     
  0.684804232223101     
   3.86856382491277     
 -0.503831827896075     
  0.731126336095923     
  -7.56749662518347     
  -7.78397447348259     
  0.702642748163563     
  0.687335706452777     
  0.705318088684937     
  0.680398005932090     
   3.65848151534299     
  -7.18093765698414     
  0.728695340764513     
  -7.52499937515637     
   3.53888005387729     
  -7.58450064342398     
 -0.969197363288395     
   4.33168382957094     
  -8.48522239090050     
  -5.08367873018714     
  -4.91137421916129     
   5.01227860971977     
  0.668391569132194     
   3.43633074437272     
  -7.85684235938527     
  -7.79025444506185     
  0.671709502829105     
   1.10026500593770     
 -0.596294197247868     
 -0.398678035488366     
  -6.83057449147929     
  -3.51945881780889     
  -8.16466913245140     
  -2.29795048886189     
  -7.29988381786727     
 -6.914592753048970E-002
  -8.17055562647827     
 -6.173113841650463E-002
   2.17451859071533     
   4.97806854784309     
  -8.37570934724282     
  0.863736344553650     
  -7.62059339422725     
  -1.71065862774188     
  -4.54073179633291     
 -0.299078266809772     
  -9.88242835953777     
  -9.62408784378021     
 -0.360738390820046     
  -9.14980435796072     
  -7.86909283756113     
  -2.93990716949844     
  -10.0013150775166     
  -9.46334857935686     
 -0.344289674709988     
  -9.60221599257572     
  -6.53469396660521     
  -1.01113973739915     
  -1.48240821136304     
   3.45346263623215     
   4.25824744879755     
  0.775951861082369     
  1.092329767475075E-002
 -0.118772500952998     
   2.73866792879966     
   2.33700653282740     
 -0.133249330365945     
  -7.88466643741770     
  -3.00048415144248     
 -5.990555144070523E-002
  -8.99543934823748     
 -4.953414334459388E-002
 -5.098203724484502E-002
 -4.204552511728128E-002
   9.17529974708667     
 -0.311848354355806     
   3.29837957216396     
  -9.53579975423629     
 -4.103186092519962E-002
   6.82564273229785     
 -2.978053215240231E-002
 -3.193221932415003E-002
 -2.223864931516070E-002
   4.42384142635153     
  -4.66893522858165     
  -8.50019573985544     
   5.40317444332566     
  -2.87908388391769     
  -9.30330543228794     
  -7.22345277986470     
 -2.100322383061341E-002
  -5.54229816042971     
 -9.895438063385291E-003
 -1.185846716486876E-002
 -2.318440788412462E-003
  -7.50097350676537     
  0.660341859354529     
  0.648477151540522     
  -3.76665504054419     
  0.665226108550765     
 -0.558776181684251     
  0.652010125096049     
  0.694885112365382     
   3.79031855037797     
  -1.59316140901632     
  0.700807590841121     
  -7.74136032240827     
  -7.95832007024741     
 -8.715244922865048E-004
  -7.65579403900773     
  1.009949358672424E-002
  8.300301332626988E-003
  1.769448374784858E-002
  -6.06572212786019     
  1.935150059955248E-002
  -4.33371663021077     
  3.020350837269230E-002
  2.853365240671426E-002
  3.780030767335466E-002
   4.81367490615134     
  3.965003267445137E-002
   2.54961846341166     
  5.037310321571892E-002
  4.882701969102951E-002
  5.795718662379492E-002
  -7.82651793249234     
  -4.47137826615963     
  -8.80305312516423     
  -7.49256028918330     
  -1.22041250217197     
   9.74139251507457     
   4.61833771576476     
 -0.157611556329324     
  -1.11834843366502     
  -2.17870390229217     
 -0.169698654605976     
  -4.81930428667272     
  0.356097517404974     
  6.001197897684345E-002
  -7.60116428976699     
  7.062911793396444E-002
  6.916953380841044E-002
  7.818688218383828E-002
  -7.25850236211050     
  -2.12199233547880     
  -7.61675935435105     
   10.0569191838006     
  -6.82253030175595     
   4.61875015866862     
   2.62427379463221     
 -7.620714691594135E-002
  -8.04278404452012     
   2.92864429838111     
 -9.674270798390101E-002
  -3.84269122008718     
  -7.13840469249716     
  8.043189901086562E-002
  -4.57650559956265     
  9.093776295985721E-002
  8.955675960174589E-002
  9.845647651483234E-002
  -4.52394194281796     
  0.100905801308824     
  -6.83689385448057     
  0.111311691618515     
  0.109985483040431     
  0.118779438218886     
  -6.43290631837668     
  0.121424927947732     
  -6.48828620491780     
  0.131736144514275     
  0.130447625710636     
  0.139141158160628     
  -6.03463654342800     
   2.75565767492986     
  -3.46328006607191     
  -8.10573971018976     
  0.673324751906436     
   3.00106830052498     
  -8.12798072129280     
  -9.90279137530567     
  -4.62906915770741     
  -3.17049324436242     
  0.654226528791616     
   2.95165402157802     
  -2.87770666693732     
  0.673866097776420     
  -3.22860754858502     
  -2.82103756423475     
  0.640788384783746     
  -7.18846802830013     
  -3.58044448746493     
   3.75497013783842     
  -7.52437840948298     
 -0.916684981154066     
  0.679193976917985     
   4.04874622711212     
   3.19444996226289     
  -4.22857946460241     
  -3.58542254685050     
  -6.97311592572335     
  0.661010137452195     
  -7.14587821665987     
   3.56856122286126     
  0.680955747469381     
  -6.84116880814091     
  -7.18502478672498     
  0.646060964005655     
  -7.51991259503129     
   3.29959478833868     
  -6.86778243877644     
   4.43830645824854     
  0.631839171168774     
   2.71331924705731     
  0.628090973809721     
   2.65434275525824     
  0.150941336789922     
  0.159530354340586     
  -1.94264028369670     
  0.141986780218585     
  -3.52326908389809     
  0.152198348761428     
  0.171455928212505     
  0.179956640456652     
   2.80455450631025     
  0.162579960099951     
  -6.92148797765264     
  0.172708440310169     
  0.183208918607762     
  -4.09011551838741     
  0.193260392378901     
  0.191996708757235     
  0.200416283807655     
  -5.81572932686906     