 TITLE="euler solver on unstructured grid" 
 VARIABLES= "X" "Y"  "P" "Rou" "U"  "V"  "nuT"
 ZONE NODES=        5306  ELEMENTS=       10382  ZONETYPE=FETRIANGLE
 DATAPACKING=BLOCK
 VARLOCATION=([3-7]=CELLCENTERED)
 -0.272872854716013     
 -0.264409218545951     
 -0.256231217975610     
 -0.248100853855180     
 -0.239995543882974     
 -0.231906499271307     
 -0.223829203559842     
 -0.215760971285677     
 -0.205014194676341     
 -0.194278701703520     
 -0.183550631784636     
 -0.172829702755745     
 -0.162115907102518     
 -0.151406513357463     
 -0.140701941238983     
 -0.130002671498734     
 -0.119306338868708     
 -0.108613607200302     
 -9.792517086153793E-002
 -8.723881716752806E-002
 -7.655533203616498E-002
 -6.587550138534073E-002
 -5.519720408004096E-002
 -4.032832534817336E-002
 -2.546368842702813E-002
 -1.060295763374231E-002
  4.255141215558532E-003
  1.910882266872302E-002
  3.395936090962561E-002
  4.880690852138583E-002
  6.365164860374707E-002
  7.849376425645274E-002
  9.333337754599842E-002
  0.108171671106387     
  0.123006737418971     
  0.137839698084506     
  0.152670675169488     
  0.167499729707164     
  0.182327014280653     
  0.197152589923204     
  0.211977547718947     
  0.226799919115989     
  0.241620825715082     
  0.256440328549477     
  0.271258458135796     
  0.286075275507287     
  0.300890872213822     
  0.315706247789660     
  0.330519464199530     
  0.345331582010941     
  0.360142601223890     
  0.374952582871627     
  0.389761557470776     
  0.404569525021335     
  0.419377515574189     
  0.434183560577443     
  0.448988659565355     
  0.463792843054551     
  0.478596141561654     
  0.493398524570039     
  0.508199992079707     
  0.523001574141542     
  0.537801271687024     
  0.552600053733789     
  0.567397950798461     
  0.582194901847792     
  0.596990967915030     
  0.611786057450303     
  0.626581200504494     
  0.641374398009085     
  0.656166557948463     
  0.670957710839253     
  0.685747826164830     
  0.700536842891946     
  0.715324761020602     
  0.726661404659639     
  0.715150694197866     
  0.700238451343434     
  0.685327307087462     
  0.670417261429951     
  0.655508253337653     
  0.640600252293943     
  0.625693288815446     
  0.610786271818030     
  0.595881200370215     
  0.580977105454365     
  0.566073895520607     
  0.551171631602191     
  0.536270252665868     
  0.521369789228262     
  0.506469211238490     
  0.491570517765070     
  0.476672739790367     
  0.461775877314382     
  0.446879899820489     
  0.431984837825314     
  0.417090721845479     
  0.402196552346727     
  0.387304358914198     
  0.372413172530258     
  0.357522993194907     
  0.342633851424769     
  0.327745808253091     
  0.312858863679873     
  0.297972079204105     
  0.283087514927551     
  0.268204171315954     
  0.253322139919185     
  0.238441481770491     
  0.223562227386497     
  0.208684437800450     
  0.193807235544587     
  0.178932650204049     
  0.164059773794451     
  0.149188667349038     
  0.134319483450932     
  0.119452283133379     
  0.104587188462875     
  8.972332197165654E-002
  7.486277427811419E-002
  6.000472894773173E-002
  4.514930804700485E-002
  3.029669467567692E-002
  1.544707193349139E-002
  6.005924035677359E-004
 -1.424346879873825E-002
 -2.908289898854057E-002
 -4.391842305048343E-002
 -5.874970530170395E-002
 -6.939547188592435E-002
 -8.003770605610148E-002
 -9.067828481425856E-002
 -0.101315995009769     
 -0.111949623492006     
 -0.122580955713121     
 -0.133208686972615     
 -0.143831482053367     
 -0.154450973824407     
 -0.165065643968872     
 -0.175673913136646     
 -0.186277047997276     
 -0.196873041967912     
 -0.207459613816092     
 -0.218036901096277     
 -0.225961216972122     
 -0.233876469410667     
 -0.241779972949011     
 -0.249667211126815     
 -0.257529395156395     
 -0.265343942736065     
  -9.96304920945396     
  -8.96351495007831     
  -7.96398069070266     
  -6.96444643132700     
  -5.96491217195135     
  -4.96537791257570     
  -3.96584365320005     
  -2.96630939382440     
  -1.96677513444875     
 -0.967240875073094     
  3.229338430255757E-002
   1.03182764367821     
   2.03136190305386     
   3.03089616242951     
   4.03043042180516     
   5.02996468118082     
   6.02949894055647     
   7.02903319993212     
   8.02856745930777     
   9.02810171868342     
   10.0276359780591     
   9.99711935415722     
   9.96660273025536     
   9.93608610635350     
   9.90556948245165     
   9.87505285854979     
   9.84453623464793     
   9.81401961074607     
   9.78350298684422     
   9.75298636294236     
   9.72246973904050     
   9.69195311513865     
   9.66143649123679     
   9.63091986733493     
   9.60040324343307     
   9.56988661953122     
   9.53936999562936     
   9.50885337172750     
   9.47833674782565     
   9.44782012392379     
   9.41730350002193     
   8.41776924064628     
   7.41823498127063     
   6.41870072189498     
   5.41916646251933     
   4.41963220314367     
   3.42009794376802     
   2.42056368439237     
   1.42102942501672     
  0.421495165641068     
 -0.578039093734584     
  -1.57757335311024     
  -2.57710761248589     
  -3.57664187186154     
  -4.57617613123719     
  -5.57571039061284     
  -6.57524464998849     
  -7.57477890936415     
  -8.57431316873980     
  -9.57384742811545     
  -10.5733816874911     
  -10.5428650635892     
  -10.5123484396874     
  -10.4818318157855     
  -10.4513151918837     
  -10.4207985679818     
  -10.3902819440800     
  -10.3597653201781     
  -10.3292486962762     
  -10.2987320723744     
  -10.2682154484725     
  -10.2376988245707     
  -10.2071822006688     
  -10.1766655767670     
  -10.1461489528651     
  -10.1156323289632     
  -10.0851157050614     
  -10.0545990811595     
  -10.0240824572577     
  -9.99356583335582     
 -0.220123858747387     
 -0.222962703019555     
 -0.210898765091502     
 -0.213844713198528     
 -0.231590858487986     
 -0.228825834370049     
 -0.216388173379689     
 -0.219863725612901     
 -0.203922391550419     
 -0.200848049036418     
 -0.240477390861706     
 -0.237797662622064     
 -0.224998250045184     
 -0.228455954113604     
 -0.207219813289455     
 -0.210801647437024     
 -0.247125791289501     
 -0.249611633061253     
 -0.193658677057931     
 -0.190462000709073     
 -0.234252813823331     
 -0.237786524573764     
 -0.276281685199174     
 -0.274692097878974     
 -0.258630406336278     
 -0.256581721046010     
 -0.213798531926651     
 -0.217899842083835     
 -0.197182573893569     
 -0.200877719174106     
 -0.221214351235675     
 -0.225176339480706     
 -0.282805782030239     
 -0.281935079507531     
 -0.183356055731131     
 -0.180047714175676     
 -0.265767283463789     
 -0.267261102163791     
 -0.284359666018965     
 -0.281361858865671     
 -0.248190609252658     
 -0.244628238917063     
 -0.289321614645433     
 -0.204135276028889     
 -0.208363795899562     
 -0.275977137022599     
 -0.272833230771600     
 -0.173177987306486     
 -0.169755868810602     
 -0.291967399712195     
 -0.186838742915906     
 -0.190630337926465     
 -0.229100708036161     
 -0.233311074878636     
 -0.290460299159010     
 -0.221698225526001     
 -0.226305009026849     
 -0.162969743145755     
 -0.159420585384960     
 -0.258891076162984     
 -0.255595360684142     
 -0.290261196347194     
 -0.212034788220534     
 -0.216834608300517     
 -0.293722365354653     
 -0.193535505882168     
 -0.197856806256644     
 -0.152446963204000     
 -0.148770464585498     
 -0.176831558161549     
 -0.180707026262831     
 -0.285285526301266     
 -0.268781526434564     
 -0.266610493858772     
 -0.240073656828406     
 -0.244643919183399     
 -0.299320714812980     
 -0.277872638952798     
 -0.141596958915201     
 -0.137811888757418     
 -0.300404275726705     
 -0.302116094157707     
 -0.277252032843893     
 -0.200952315891591     
 -0.205864347861301     
 -0.167279367226103     
 -0.171288198880594     
 -0.126723201296467     
 -0.130593229046233     
 -0.221665978399725     
 -0.227106792565584     
 -0.182931580497544     
 -0.187299994747322     
 -0.294347424870267     
 -0.232246911356750     
 -0.237436628701852     
 -0.119588448958942     
 -0.115656981551951     
 -0.252822407506534     
 -0.257675322244846     
 -0.161386383314257     
 -0.157192260898078     
 -0.301208864791413     
 -0.290086441632464     
 -0.304083566464509     
 -0.108679175457775     
 -0.104702364823178     
 -0.209839351317261     
 -0.215407201645181     
 -0.194065371948971     
 -0.189103269632806     
 -0.150449166890795     
 -0.146095420585719     
 -0.304490930051268     
 -0.174108811644730     
 -0.178471585294386     
 -9.781189036913798E-002
 -9.380068797155545E-002
 -0.285918057423585     
 -0.310972334605634     
 -0.265693699767663     
 -0.270386721019640     
 -0.309771533313181     
 -0.309992636160555     
 -0.302584774397718     
 -0.139061703892285     
 -0.134592880638602     
 -0.278033425088923     
 -8.715655257746545E-002
 -8.313165285844286E-002
 -0.313616394621943     
 -0.315979144829717     
 -0.171006858796761     
 -0.166353062273776     
 -7.676861601163451E-002
 -7.270999116994611E-002
 -0.202606709327865     
 -0.196966562892816     
 -0.313703035162734     
 -0.127538291702638     
 -0.122993087084693     
 -0.280181755196617     
 -0.247254299143008     
 -0.253391141688908     
 -0.220491452944749     
 -0.226800872866250     
 -0.177123377128359     
 -0.182040152212065     
 -0.292398436303310     
 -6.570500358294237E-002
 -6.159140372485900E-002
 -0.233537478863556     
 -0.239786724237103     
 -0.111637462103645     
 -0.116211511651840     
 -0.160156764859735     
 -0.155235002350961     
 -0.290364726212082     
 -4.874133079685015E-002
 -5.288796846829961E-002
 -0.316305733193794     
 -0.316852188846656     
 -0.105225283873191     
 -0.100623300643905     
 -0.322625344634076     
 -0.206795582904658     
 -0.213169049911502     
 -0.148056379944507     
 -0.142987675011905     
 -3.453274739876020E-002
 -3.869864918241235E-002
 -0.303048958289139     
 -0.188685159186980     
 -0.183037890993021     
 -0.323468413079661     
 -0.263539893095053     
 -0.270459885158704     
 -9.384914397514556E-002
 -8.923461895720845E-002
 -0.303605706119528     
 -1.979989003412677E-002
 -2.398366190082481E-002
 -0.326853442006204     
 -0.130982750130549     
 -0.136158601985030     
 -8.383141591834839E-002
 -7.930895890429898E-002
 -0.328398544256445     
 -0.277400263696146     
 -0.329694007982909     
 -0.167162897460251     
 -0.172687311155537     
 -0.286218463398571     
 -4.749970374750147E-003
 -8.962348849905901E-003
 -7.452818314650031E-002
 -6.986495152059644E-002
 -0.118420483309205     
 -0.123650590138394     
 -0.191969931111843     
 -0.198400641957126     
  1.046570664359122E-002
  6.197247559278328E-003
 -0.316710302778289     
 -0.239776832001186     
 -0.232610563720047     
 -0.218340859413595     
 -0.225490376971570     
 -6.195010347982841E-002
 -5.723892192043856E-002
 -0.246780760885556     
 -0.254128494504349     
 -0.317899532374450     
  2.133412766006632E-002
  2.571575409811950E-002
  0.324350984711492     
  0.320612442280178     
 -0.112632838988529     
 -0.107501399589834     
  0.338990018230942     
  0.335350670370353     
  0.309809915180296     
  0.305926950248802     
  4.091331762986417E-002
  3.634422354232437E-002
  0.726680100894835     
  0.726301951117753     
 -0.157357764530156     
 -0.151625100280273     
 -0.290262944555061     
 -4.836228059112210E-002
 -4.365045467886353E-002
  0.353754952735891     
  0.350190392362332     
  0.295262094177697     
  0.291191059147765     
 -0.331379029393397     
  5.601804098982539E-002
  5.124200299595484E-002
  0.365106347274660     
  0.368600506502380     
 -0.330899757490844     
  0.280629842863082     
  0.276364806300654     
  0.380064128218382     
  0.383481461661707     
  6.613475125593281E-002
  7.103525809987331E-002
  0.712007416637377     
  0.711395933351377     
  0.265910601597208     
  0.261498652653673     
  0.395049314481132     
  0.398380555944514     
  0.696835150538103     
  0.696009748564499     
  0.251130216437414     
  0.246638124385285     
  8.599953209738662E-002
  8.109585447151631E-002
  0.410062246392163     
  0.413299371001144     
  0.236303940586257     
  0.231771929196382     
  0.681662038068245     
  0.680640907447930     
  0.100953340842229     
  9.612177897199235E-002
  0.425107432513494     
  0.428244778453255     
  0.221431787001819     
  0.216865156673712     
  0.666578988832713     
  0.665377724679381     
  0.115935911100870     
  0.111187694335888     
  0.206500909767320     
  0.201893790484160     
  0.440176851314458     
  0.443209806817624     
  0.130978693177259     
  0.126283277189867     
  0.651566400934727     
  0.650197665376455     
  0.191494116187996     
  0.186847070682944     
  0.146092617249699     
  0.141410842518403     
  0.176404070129935     
  0.171728712216142     
  0.455226521692914     
  0.458151013817212     
  0.161252745520821     
  0.156568363742083     
  0.636578990780016     
  0.635052887103002     
  0.470192442280068     
  0.473006492320986     
  0.621583760028505     
  0.619909505647629     
 -0.102223147490909     
 -9.695277730178188E-002
 -0.337499278853205     
  0.487761736599952     
  0.485056173094532     
 -0.269497030408361     
 -0.261572009923365     
  0.606584677143902     
  0.604771511449323     
  0.499860073210989     
  0.502461038044728     
  0.589667128040076     
  0.591610633972264     
  0.514662023315179     
  0.517161080905672     
  0.574587264396379     
  0.576655373733010     
  0.529513399422103     
  0.531911678654782     
  0.559505122250367     
  0.561691165146945     
  0.546755297880426     
  0.544459933536680     
 -3.401742738272229E-002
 -2.931158375012205E-002
 -0.335845908075472     
 -0.331548126476670     
 -0.301392085507528     
 -0.139428059999687     
 -0.145173398345497     
 -0.182277587982567     
 -0.175836109593516     
 -0.203032530369940     
 -0.210252015559809     
 -0.333305243161244     
 -0.340747167178171     
 -8.691243703930032E-002
 -8.169599577635910E-002
 -1.896067044904299E-002
 -1.424214996643013E-002
 -0.343032998178830     
 -0.303972390477948     
  0.741518858925052     
  0.741366956384645     
 -0.344495247194188     
 -0.344202647975872     
 -0.127533980020953     
 -0.133506289580369     
  1.319384448980437E-003
 -0.276306056049457     
 -3.449076137745486E-003
 -0.346043762157954     
  0.739893612490370     
 -0.285466172601524     
 -0.167272129951028     
 -0.160903616076588     
 -0.347584494183027     
 -7.208513140194395E-002
 -6.678095553035343E-002
  1.704206839686909E-002
  1.214852435779815E-002
 -0.316236312457138     
 -0.115906851163187     
 -0.109961256684838     
  0.740378385555201     
 -0.238954470582141     
 -0.231013980373122     
 -5.822928872593887E-002
 -5.296507476628975E-002
 -0.318566057499117     
 -0.193370874361601     
 -0.186054610023709     
  2.750736596298411E-002
  0.313668852624790     
  0.318392627580377     
  0.328101588433454     
  0.332669921218418     
  3.270735918641325E-002
  0.304245377323455     
  0.299239362524542     
  0.347288679099813     
  0.342795910469224     
  4.247309976115282E-002
  4.818221454528822E-002
 -0.215937050525055     
 -0.223926619650689     
 -0.245312004854290     
 -0.253424493328570     
  0.289917675848452     
  0.284538753601244     
  0.362146168377216     
  0.357706322197577     
  6.343740630154508E-002
  5.728519920751058E-002
  0.756701803242167     
  0.269653518647924     
  0.275357906839860     
  0.372713348666034     
  0.377090787214372     
 -0.348922146019266     
  0.757384882328411     
  0.724329219657715     
  0.723508663429334     
  7.853861794952813E-002
  7.225929061604354E-002
  0.254794744747354     
  0.260655325133599     
  0.387770696317864     
  0.392066221931215     
  0.708433417195652     
  0.707293666208802     
  0.245862763368716     
  0.239985607936002     
  0.407068088102795     
  0.402871471556133     
 -4.449733246240572E-002
 -3.929217670376417E-002
  8.741706070726869E-002
  9.357971857648331E-002
  0.691263915815753     
  0.692689057633506     
  0.225123459326746     
  0.230992785865759     
  0.422119620652936     
  0.418033216605774     
  0.102665694628469     
  0.108645836435889     
  0.675529538963137     
  0.677207029117200     
  0.210136617714449     
  0.216028778948453     
  0.117965797909535     
  0.123814972663219     
  0.433275012526929     
  0.437244155394041     
 -0.289697583029454     
  0.661939211204336     
  0.660035330350821     
  0.195000186200637     
  0.200930811621819     
  0.139147947997696     
  0.133317081531764     
 -0.150808660566317     
 -0.144050688871012     
  0.179693460532903     
  0.185652982536640     
  0.154642066456354     
  0.148745982026203     
  0.448568940018688     
  0.452414330527720     
  0.164239502917595     
  0.170193280079692     
  0.646769871215678     
  0.644658500307328     
  0.467463912281075     
  0.463749922364049     
  0.629291493686318     
  0.631594946931042     
 -0.353040626925939     
  0.482245169644905     
  0.478660770838422     
  0.613883242506968     
  0.616363442474082     
  0.493369528543596     
  0.496836012129494     
  0.601152686249472     
  0.598514476796433     
 -0.260196988410376     
 -0.268801320619537     
  0.508023619974001     
  0.511381812393268     
  0.586059974453184     
  0.583276251533385     
  0.525983067947296     
  0.522727119464612     
  0.568024039921047     
  0.570949173065517     
  0.540738790005268     
  0.537583200972203     
  0.552709687902803     
  0.555759640289297     
  0.756881666602242     
 -0.347418838959163     
 -0.349874438063632     
 -0.300452183057757     
 -2.454408807137030E-002
 -2.971580002273994E-002
 -9.283274949518873E-002
 -9.889002035256539E-002
 -0.331640487866948     
 -0.357246269683742     
 -0.334253507283517     
 -0.173223430013796     
 -0.165834964093240     
 -0.198965331972459     
 -0.207103298345718     
 -0.355692302200116     
 -8.565319773530852E-003
 -1.375359633402245E-002
  0.754818718224392     
  0.755251814060736     
 -0.303552797709540     
 -0.361296750384529     
 -7.708530068596736E-002
 -8.308981398531035E-002
 -0.359449246638717     
  7.767510022614440E-003
 -0.284613371390405     
 -0.122440329500842     
 -0.129381196476427     
  2.516388524488218E-003
 -0.362337857916472     
 -0.359562861512914     
 -0.275142357427692     
  0.736985662677412     
 -0.364855688746086     
 -6.203774634227906E-002
 -6.791715051405155E-002
 -0.230641931503427     
 -0.239353784686521     
  1.866541623206193E-002
  2.408470369777067E-002
 -0.315405924842740     
 -0.348037513998666     
  0.737885582070196     
 -0.351262975904323     
  0.320913734475645     
  0.326356721969672     
  0.307179375875751     
  0.312894412881933     
  3.396125211145273E-002
  0.773021218354708     
  4.012617667238074E-002
  0.335222708402044     
  0.340598701030193     
  0.299180311382412     
  0.292895590815236     
  0.355518925223655     
  0.350154663281293     
  0.773026848305944     
  4.838391198677817E-002
  5.572594877019480E-002
 -5.469507178565303E-002
 -4.902124018467963E-002
  0.284828586368632     
  0.277855975247282     
  0.370560584347060     
  0.365224667997738     
  0.774092468963167     
 -0.318152783918759     
  7.097635529017067E-002
  6.310673329909705E-002
 -0.364154031696976     
  0.262838763005881     
  0.270214735764324     
  0.380353864220288     
  0.385620920421417     
  0.720791341792004     
  0.719444330276401     
  0.248124581627656     
  0.255474757170149     
  7.840790741783778E-002
  8.607300941174334E-002
  0.395518975420725     
  0.400683726685109     
 -0.188929613901057     
 -0.180599104970765     
  0.704093838445518     
  0.702352967842348     
  0.240643931707441     
  0.233430580964437     
 -0.111140722396995     
 -0.104192489296159     
  0.101154972266557     
  9.384838941011263E-002
  0.774112891462479     
  0.415787063004765     
  0.410744551405374     
  0.685929195863239     
  0.688004094034667     
 -0.251686378626796     
 -0.243048751070830     
  0.218516587640842     
  0.225710842434782     
  0.116341486037456     
  0.109354735191009     
  0.431004843880613     
  0.426093499407237     
  0.203380750433220     
  0.210626269451477     
  0.672432667467419     
  0.670067906576342     
  0.124894157444463     
  0.131763380741798     
  0.188001638042083     
  0.195293223614647     
  0.147539000146402     
  0.140517419030988     
  0.179600241917573     
  0.172286768859556     
  0.441630364604656     
  0.446406006230007     
  0.163588975662375     
  0.156346760506555     
  0.657112496302086     
  0.654486696465690     
 -0.367704604734951     
 -0.213460396496787     
 -0.222348450044934     
  0.457321511582162     
  0.461950042185372     
  0.638966119118472     
  0.641832899986567     
  0.472501497586416     
  0.476959196746361     
  0.623334096569274     
  0.626425193190118     
 -0.369289696831298     
  0.487071341929496     
  0.491389221190554     
 -0.364510496478653     
  0.610807313290207     
  0.607513732722464     
 -3.651203396565185E-002
 -4.210628578322893E-002
  0.501525074402686     
  0.505723978919211     
  0.595445532987465     
  0.591993418452094     
  0.515979522021280     
  0.520071887563709     
  0.576877011388323     
  0.580494505479264     
  0.534578510718060     
  0.530585250375464     
  0.561185906182392     
  0.564978465132912     
  0.549387910190938     
  0.545490363023447     
 -0.288707665246649     
 -0.158480852211914     
 -0.150553988947713     
  0.771078423420718     
 -0.258009972358890     
 -0.267115204323199     
 -8.728160547352655E-002
 -9.415767766132574E-002
 -0.299394915318759     
 -1.960765040986645E-002
 -2.510893999305545E-002
 -0.365776055683201     
  0.751815200321661     
 -0.142089207214084     
 -0.134132405861227     
 -0.374242988514353     
 -0.330877639683105     
 -0.334096080284237     
 -0.371843075212381     
  0.770915062787205     
 -0.369708995635116     
 -2.357975712235478E-003
 -7.958026721207196E-003
 -7.209816689823929E-002
 -0.376114986631682     
 -7.868893924858295E-002
  0.752623494915469     
 -0.171399796133583     
 -0.162806725248592     
 -0.203742101671451     
 -0.194576304359379     
 -0.379017003294243     
 -0.301968085531331     
 -0.373286562366413     
 -0.274140065229214     
 -0.283918226221596     
 -0.380025656108624     
 -0.239621589031900     
 -0.230104740422566     
  1.481292940785682E-002
  9.289300836422168E-003
  0.789806417196989     
 -0.114869119741037     
 -0.122874757095265     
 -0.383016425446496     
  0.732805733148485     
 -0.383346296536567     
 -0.351676536385522     
  2.641385536989817E-002
  3.179418901483505E-002
  0.314297966677737     
  0.320432585131398     
  0.326951204315319     
  0.333101544972343     
 -5.452800547746595E-002
  0.302005642609823     
  0.308725660270661     
  4.017025214781409E-002
  0.790306621514312     
 -0.313589680257060     
 -0.347632880498942     
 -6.084498904324694E-002
  0.734226613948910     
  4.802291624851997E-002
  0.342351752736800     
  0.348588838339411     
  0.286503220788966     
  0.294454022735498     
  0.791432316751660     
  5.315613358532473E-002
  0.363847066374799     
  0.357553478860992     
  6.339232619962908E-002
  0.279847679834311     
  0.270658713728974     
  0.372790016935029     
  0.379045436489717     
  6.900096560960566E-002
  7.849587362601050E-002
  0.255899860566132     
  0.265139974803970     
 -0.380385456963961     
 -0.386896327268237     
  0.388029204373800     
  0.394177795968775     
  0.716003752010761     
  0.714039154159961     
  0.241752923066848     
  0.250357345356873     
  0.791768372047800     
  8.467202078544185E-002
  9.352124983773027E-002
  0.403270280315741     
  0.409278610358627     
  0.235494811104681     
  0.227031719183279     
  0.792146577436176     
  0.698804856786130     
  0.696414065925044     
  0.108621671321962     
  0.100435776724833     
 -9.792351095300367E-002
  0.211940740345295     
  0.220506259811958     
 -0.105699449106155     
  0.424465372258483     
  0.418611215879450     
  0.123926035980395     
  0.116187321509763     
  0.682907316952531     
  0.680164312617993     
  0.196624185072737     
  0.205306604921483     
 -0.154871849342736     
 -0.145949012371367     
  0.131900073707576     
  0.139714487441627     
  0.180948213703628     
  0.189645491271746     
  0.147787482984831     
  0.156306655767616     
  0.439908461406603     
  0.434204708310187     
  0.164402385929191     
  0.173209140031788     
 -0.316224123603795     
  0.667490890391824     
  0.664435822100614     
  0.768008020497382     
  0.450264867339355     
  0.455820763049797     
  0.652235144822290     
  0.648890430617252     
  0.467167689680426     
  0.472548631723123     
  0.633234643549437     
  0.636852656300563     
  0.481000030830389     
  0.486076182940239     
 -0.220286025025221     
 -0.210362965372533     
  0.617183965798267     
  0.621066216834792     
 -0.259521685068054     
 -0.250087238913435     
  0.500415773916117     
  0.495339096453634     
  0.604337111132165     
  0.600216149809429     
  0.509339642145905     
  0.514170982775868     
  0.589754148188559     
  0.585584118598494     
  0.523651964840886     
  0.528514058048392     
  0.575703848005645     
  0.571204125927397     
  0.542695350148499     
  0.538058766184111     
  0.557495266884692     
  0.552804571408566     
 -0.184695032148040     
 -0.175267320939728     
 -0.386251012035014     
 -3.237566653335701E-002
 -3.792633877418485E-002
  0.787639168430505     
 -0.287497787936386     
 -0.385000718998079     
  0.768521126926007     
 -7.976046148521440E-002
 -8.752580158466233E-002
 -0.370843230829991     
  0.787987072457876     
 -0.366038455306779     
 -0.328673787528851     
 -0.298208714503967     
 -1.360534900306168E-002
 -0.391967983376760     
 -1.935453040149775E-002
  0.747807655587040     
 -0.136122162527567     
 -0.126985784495661     
 -0.390087683123706     
 -0.388131124391274     
 -0.332750930287151     
 -0.389609266222466     
 -0.394387492942166     
 -1.503358807092009E-003
  4.731015196512357E-003
 -0.398037888079116     
  0.749125420933268     
  0.806880883374137     
 -0.399267331763268     
 -0.239813560899065     
 -0.229414001264944     
 -0.297419999476314     
 -0.168161246406217     
 -0.158592006121884     
 -0.199033273677833     
 -0.188663419837022     
 -0.403013692684238     
 -0.103653758117389     
 -0.112841986019153     
 -0.275044818883221     
 -0.285242867551949     
  2.254543237077092E-002
 -0.391532370851381     
  1.743169432448950E-002
  0.785318335463051     
 -0.403248472448986     
  0.727143506912689     
  0.808301257188008     
  3.879489450550129E-002
  4.087753366617431E-002
  0.809202109669384     
  0.314379857609231     
  0.321040900622132     
  0.334460020701595     
  0.341518007775450     
  0.296707823575739     
  0.304314340612184     
 -0.351144524629666     
  5.594823479533241E-002
  0.349679420329227     
  0.356854066563906     
  0.729216304451084     
  0.278828663054062     
  0.289810413705482     
 -0.386018449064391     
 -0.346065015365094     
  7.093658488424588E-002
  0.372403471100862     
  0.365026823590877     
  0.274639594321888     
  0.261962128293405     
  5.931261144180031E-002
  0.810309848351125     
  7.518580518096733E-002
  8.585430058358720E-002
  0.250000703343710     
  0.260321224185694     
 -0.308765274109259     
  0.380456360552712     
  0.387540115203831     
  0.810759042212600     
  0.235966190168782     
  0.245093852892101     
  0.100733589327782     
  9.099273623077896E-002
  0.395691063030607     
  0.402769634211872     
  0.709108215908555     
  0.706422464986860     
 -0.407477179099532     
  0.230682543920453     
  0.220513360389896     
  0.811166409389935     
  0.785384638610639     
 -4.366717848843935E-002
  0.115887152897997     
  0.107403796294367     
  0.417658463259016     
  0.410936607017912     
  0.692868875545996     
  0.689868264283219     
  0.205498771440785     
  0.215235718624404     
  0.122986078464333     
  0.131091692961829     
 -0.398772693836019     
 -0.256343498518165     
 -0.246450544203916     
  0.189884591145924     
  0.200537493499785     
 -4.939242716755090E-002
  0.138887239311387     
  0.147553643462157     
  0.183909504771753     
  0.174386392539138     
  0.433027245638868     
  0.426334029239955     
  0.154540861785830     
  0.166159365438727     
  0.677944826460394     
  0.674511267083515     
  0.448603245764264     
  0.442219667268911     
  0.662366859276629     
  0.658687863641420     
  0.458980233027573     
  0.465390517236088     
  0.647767304698392     
  0.643682290906884     
 -6.112112779513604E-002
  0.482883240584678     
  0.488983466425244     
  0.627463191723119     
  0.631765800854422     
  0.616157399515399     
  0.611419962644281     
  0.510175667242592     
  0.516047215299565     
  0.592718712596515     
  0.587648630170764     
 -6.866142866020850E-002
 -0.152946928054141     
 -0.142622535820135     
  0.543417826550800     
  0.537745678312385     
  0.568686153891239     
  0.563133439081677     
  0.804554726511081     
  0.764673586401136     
 -0.312702040343898     
  0.805536540457897     
 -0.410940829370878     
 -0.405670512426744     
 -0.402403700712191     
 -2.665015707075349E-002
 -3.088583823080966E-002
 -0.176846582890684     