 TITLE="euler solver on unstructured grid" 
 VARIABLES= "X" "Y"  "P" "Rou" "U"  "V"  "nuT"
 ZONE NODES=        5306  ELEMENTS=       10382  ZONETYPE=FETRIANGLE
 DATAPACKING=BLOCK
 VARLOCATION=([3-7]=CELLCENTERED)
 -0.272999699678728     
 -0.265022497172139     
 -0.257031367036341     
 -0.249037914141014     
 -0.241043239602142     
 -0.233047771962162     
 -0.225051731444271     
 -0.217055248991992     
 -0.206392392961980     
 -0.195730035476690     
 -0.185066267306005     
 -0.174402150944590     
 -0.163738735495158     
 -0.153074056671794     
 -0.142409142745287     
 -0.131745019010438     
 -0.121079703325396     
 -0.110414212056994     
 -9.974956008407185E-002
 -8.908375782480446E-002
 -7.841781569404713E-002
 -6.775274410665487E-002
 -5.708654901682003E-002
 -4.223048206913523E-002
 -2.737420829020470E-002
 -1.251774404796873E-002
  2.339897264514405E-003
  1.719670523349688E-002
  3.205366646592044E-002
  4.691077352181221E-002
  6.176801747320476E-002
  7.662538939213064E-002
  9.148288332661149E-002
  0.106341490347573     
  0.121199205993245     
  0.136057024310543     
  0.150914939347489     
  0.165772948128092     
  0.180631043212381     
  0.195489221624365     
  0.210348478898955     
  0.225206813550370     
  0.240065219625525     
  0.254923694148430     
  0.269782235631091     
  0.284640841097518     
  0.299499506083728     
  0.314359230588615     
  0.329218011638402     
  0.344076846255993     
  0.358935734441390     
  0.373794673218602     
  0.388653661099635     
  0.403512698084488     
  0.418372782684061     
  0.433231913412573     
  0.448091090268917     
  0.462950311765098     
  0.477809576413121     
  0.492668885700982     
  0.507528239628680     
  0.522388636707114     
  0.537248076938497     
  0.552107561809717     
  0.566967089832780     
  0.581826663983675     
  0.596686281286412     
  0.611545946204976     
  0.626406657250265     
  0.641266414424492     
  0.656126222190535     
  0.670986079060399     
  0.685845986522078     
  0.700705947551562     
  0.715565962148851     
  0.726999193256734     
  0.715574449669899     
  0.700720497162503     
  0.685866491087303     
  0.671012431444298     
  0.656158321209477     
  0.641304161870836     
  0.626449951940379     
  0.611594695883197     
  0.596740393697077     
  0.581886043895130     
  0.567031650941340     
  0.552177211859719     
  0.537322729626255     
  0.522468202752954     
  0.507612632728917     
  0.492758019551931     
  0.477903361735108     
  0.463048659278447     
  0.448193913669943     
  0.433339123421603     
  0.418484287045430     
  0.403628404542533     
  0.388773474422703     
  0.373918495199051     
  0.359063466871579     
  0.344208387952291     
  0.329353255465198     
  0.314498069410301     
  0.299641826812717     
  0.284786524694243     
  0.269931163055986     
  0.255075737433963     
  0.240220244852183     
  0.225364683822653     
  0.210509051369384     
  0.195652341541504     
  0.180796552848804     
  0.165940680828409     
  0.151084722504328     
  0.136228670436589     
  0.121372521649202     
  0.106516270190191     
  9.165891010868173E-002
  7.680243693847837E-002
  6.194584175271993E-002
  4.708911859942815E-002
  3.223225855063560E-002
  1.737525267837483E-002
  2.518093542672983E-003
 -1.234023224731402E-002
 -2.719773510976238E-002
 -4.205542843551613E-002
 -5.691332859251565E-002
 -6.758110988456596E-002
 -7.824801468127293E-002
 -8.891604893240077E-002
 -9.958422305501852E-002
 -0.110251547466195     
 -0.120920032579679     
 -0.131588693276522     
 -0.142256545925773     
 -0.152925608381151     
 -0.163594905939672     
 -0.174263466874339     
 -0.184933326894809     
 -0.195603535106009     
 -0.206273154004818     
 -0.216944274356691     
 -0.224947774191380     
 -0.232951715960456     
 -0.240956230607444     
 -0.248961538355539     
 -0.256968067747179     
 -0.264976919898349     
  -10.2878685747696     
  -9.28786968183409     
  -8.28787078889863     
  -7.28787189596317     
  -6.28787300302771     
  -5.28787411009225     
  -4.28787521715679     
  -3.28787632422132     
  -2.28787743128586     
  -1.28787853835040     
 -0.287879645414939     
  0.712119247520522     
   1.71211814045598     
   2.71211703339145     
   3.71211592632691     
   4.71211481926237     
   5.71211371219783     
   6.71211260513329     
   7.71211149806875     
   8.71211039100421     
   9.71210928393968     
   9.71359727851330     
   9.71508527308692     
   9.71657326766054     
   9.71806126223416     
   9.71954925680778     
   9.72103725138140     
   9.72252524595502     
   9.72401324052865     
   9.72550123510227     
   9.72698922967589     
   9.72847722424951     
   9.72996521882313     
   9.73145321339675     
   9.73294120797037     
   9.73442920254399     
   9.73591719711762     
   9.73740519169124     
   9.73889318626486     
   9.74038118083848     
   9.74186917541210     
   8.74187028247664     
   7.74187138954118     
   6.74187249660572     
   5.74187360367025     
   4.74187471073479     
   3.74187581779933     
   2.74187692486387     
   1.74187803192841     
  0.741879138992946     
 -0.258119753942516     
  -1.25811864687798     
  -2.25811753981344     
  -3.25811643274890     
  -4.25811532568436     
  -5.25811421861982     
  -6.25811311155529     
  -7.25811200449075     
  -8.25811089742621     
  -9.25810979036167     
  -10.2581086832971     
  -10.2595966778708     
  -10.2610846724444     
  -10.2625726670180     
  -10.2640606615916     
  -10.2655486561652     
  -10.2670366507389     
  -10.2685246453125     
  -10.2700126398861     
  -10.2715006344597     
  -10.2729886290333     
  -10.2744766236070     
  -10.2759646181806     
  -10.2774526127542     
  -10.2789406073278     
  -10.2804286019015     
  -10.2819165964751     
  -10.2834045910487     
  -10.2848925856223     
  -10.2863805801959     
 -0.221634085374471     
 -0.221658112211451     
 -0.212483245559782     
 -0.212456954338253     
 -0.230362247144507     
 -0.230268969933882     
 -0.218174605904337     
 -0.218278752827146     
 -0.202446483238363     
 -0.202511231192817     
 -0.239335054665323     
 -0.239164521495416     
 -0.226726401986688     
 -0.226938180545130     
 -0.209091684581142     
 -0.209122271576218     
 -0.248388887659394     
 -0.248584081435396     
 -0.192101331832974     
 -0.192197004725498     
 -0.235940511864945     
 -0.236319947841366     
 -0.276073555501090     
 -0.275182241379731     
 -0.257754000591148     
 -0.257702352356510     
 -0.215862250608998     
 -0.216033942338948     
 -0.199137680596904     
 -0.199105691270822     
 -0.223169643460437     
 -0.223426678894982     
 -0.282811022987045     
 -0.282254964741454     
 -0.181726300819597     
 -0.181845561660437     
 -0.266701794470407     
 -0.266568128968952     
 -0.284055719293662     
 -0.282009404624201     
 -0.246809902049133     
 -0.246244664085752     
 -0.289504217270263     
 -0.206307932561668     
 -0.206379559629228     
 -0.275476153049802     
 -0.273576339247612     
 -0.171478176355055     
 -0.171614311326588     
 -0.291882527224232     
 -0.188862191448712     
 -0.188780508433299     
 -0.231082495641695     
 -0.231543250036795     
 -0.290927517941045     
 -0.223909319976202     
 -0.224298413101102     
 -0.161195446734144     
 -0.161343963701107     
 -0.257656552402111     
 -0.257083765741865     
 -0.291096109771795     
 -0.214412271777090     
 -0.214651316873408     
 -0.293305457184240     
 -0.195793540946333     
 -0.195777479234675     
 -0.150598960463673     
 -0.150757671785510     
 -0.178909868205165     
 -0.178793262679238     
 -0.284669285504113     
 -0.267746918157160     
 -0.267909934118692     
 -0.242059536617508     
 -0.242885950709537     
 -0.299526885431477     
 -0.278902343335426     
 -0.139684616926367     
 -0.139853236650446     
 -0.301016532230470     
 -0.301935131288036     
 -0.276436192248206     
 -0.203453260892656     
 -0.203547247719133     
 -0.169431097059198     
 -0.169292257664258     
 -0.128807064208059     
 -0.128628009522796     
 -0.224229498442546     
 -0.224744148828911     
 -0.185240863318210     
 -0.185159999643505     
 -0.293585929517643     
 -0.234563272305730     
 -0.235334626640759     
 -0.117581311449361     
 -0.117772381072650     
 -0.254725604714596     
 -0.256024011300167     
 -0.159284771883131     
 -0.159440301854945     
 -0.302210299647002     
 -0.291336925928137     
 -0.303531962365692     
 -0.106636612945445     
 -0.106842897840739     
 -0.212581990974513     
 -0.212853852148518     
 -0.191662006811211     
 -0.191680159239840     
 -0.148254390765685     
 -0.148426303656979     
 -0.303535066589191     
 -0.176430332396519     
 -0.176311569756377     
 -9.573706021517853E-002
 -9.596327006920186E-002
 -0.285022490442095     
 -0.311372957297985     
 -0.267418627988331     
 -0.268953770138599     
 -0.309818552074883     
 -0.310755304330983     
 -0.304014994688153     
 -0.136795531483197     
 -0.136984381893753     
 -0.279529932715157     
 -8.505883875878820E-002
 -8.530721559043754E-002
 -0.313332381208124     
 -0.315271228143855     
 -0.168688584775392     
 -0.168825522926903     
 -7.463301394476379E-002
 -7.491386806544315E-002
 -0.199919103769678     
 -0.199832513766562     
 -0.314819564516418     
 -0.125218606353299     
 -0.125427121921143     
 -0.279030016014879     
 -0.249658304452216     
 -0.251217956323746     
 -0.223470536984054     
 -0.224016245582136     
 -0.179710297443023     
 -0.179616538941666     
 -0.291268868932517     
 -6.351157805674243E-002
 -6.384314488960247E-002
 -0.236280888579484     
 -0.237251437915591     
 -0.114092348823198     
 -0.113860193562920     
 -0.157687095621637     
 -0.157848531055495     
 -0.292072888579375     
 -5.103393571111139E-002
 -5.064276283197541E-002
 -0.317898119164235     
 -0.315681817364735     
 -0.102837970295292     
 -0.103103683810360     
 -0.322719133649076     
 -0.209951044540652     
 -0.210196942691193     
 -0.145494904028567     
 -0.145681647532469     
 -3.685891824384672E-002
 -3.640860117864254E-002
 -0.301638157742810     
 -0.185925155477680     
 -0.185964865963794     
 -0.324149822064701     
 -0.265734608605085     
 -0.268537000537819     
 -9.142648614650299E-002
 -9.173958484043825E-002
 -0.305515351069831     
 -2.215300495547140E-002
 -2.165588189211905E-002
 -0.326450346686055     
 -0.133737651621008     
 -0.133524813766526     
 -8.143461526855973E-002
 -8.177909149652611E-002
 -0.329627243482111     
 -0.279363957941326     
 -0.328813705668540     
 -0.170063710708835     
 -0.169940218795655     
 -0.284620649160260     
 -7.121922111219660E-003
 -6.605470794924121E-003
 -7.201092888770658E-002
 -7.244679745108605E-002
 -0.121214137817698     
 -0.120965933910550     
 -0.195247453574475     
 -0.195295390679895     
  8.084187742980668E-003
  8.573589445792474E-003
 -0.315035687645150     
 -0.236754714375755     
 -0.235829927932901     
 -0.221777027174415     
 -0.222241396153745     
 -5.934283126765819E-002
 -5.990017432135818E-002
 -0.249747779248285     
 -0.251372243671397     
 -0.320006810775491     
  2.372135138456995E-002
  2.333340273083180E-002
  0.322584018627673     
  0.322685767496768     
 -0.109975870827000     
 -0.110257018204640     
  0.337262205700536     
  0.337396557715803     
  0.308001209135931     
  0.308030715599676     
  3.853724959206566E-002
  3.873728163948253E-002
  0.726547429884394     
  0.727060767183656     
 -0.154476008929005     
 -0.154646570684730     
 -0.292458123253809     
 -4.568561503453947E-002
 -4.637124995819400E-002
  0.352067338463146     
  0.352208636067535     
  0.293407821989150     
  0.293328411066522     
 -0.333137494807269     
  5.365312480931022E-002
  5.364028612827716E-002
  0.367094603779348     
  0.366956214575883     
 -0.329510317931902     
  0.278728255478777     
  0.278535392200230     
  0.382019852259176     
  0.381883531112906     
  6.853871175168726E-002
  6.868422912967410E-002
  0.711758878587563     
  0.712273420516997     
  0.263962110044999     
  0.263699642735177     
  0.396970402354444     
  0.396831252531074     
  0.696497271332878     
  0.696971590001529     
  0.249136021816637     
  0.248867289553026     
  8.366380016931937E-002
  8.350354534341282E-002
  0.411946866712441     
  0.411800455318853     
  0.234265292711146     
  0.234028395904619     
  0.681246926825895     
  0.681671745394477     
  9.863381362743787E-002
  9.852940090323513E-002
  0.426953535061244     
  0.426798145569273     
  0.219349817223055     
  0.219148377749803     
  0.666092345141829     
  0.666470154273131     
  0.113633572138912     
  0.113591375631530     
  0.204376797896127     
  0.204202816962054     
  0.441981674525804     
  0.441818056173988     
  0.128695206618492     
  0.128679695281454     
  0.651010780631030     
  0.651348094324967     
  0.189329559151960     
  0.189180282603707     
  0.143831083565919     
  0.143796973688476     
  0.174202061409887     
  0.174083425121554     
  0.456986655990803     
  0.456817419469862     
  0.159018088268966     
  0.158940792701722     
  0.635955884836133     
  0.636259132114822     
  0.471905424909931     
  0.471733393416173     
  0.620894868209410     
  0.621169367680225     
 -9.945693026528185E-002
 -9.980714686350105E-002
 -0.337822560734318     
  0.486548961670454     
  0.486722100638066     
 -0.267020073869699     
 -0.264280320826352     
  0.605832466308730     
  0.606082172150316     
  0.501480762139008     
  0.501306745619321     
  0.591026163200570     
  0.590797264222485     
  0.516239518722804     
  0.516063234933061     
  0.575993708840863     
  0.575781596636125     
  0.531049350840265     
  0.530868647263235     
  0.560957380383233     
  0.560758394976339     
  0.545766531963107     
  0.545954907106090     
 -3.127928383136455E-002
 -3.208544148167399E-002
 -0.335736804705530     
 -0.329623428986691     
 -0.299459969055646     
 -0.142465489311435     
 -0.142264420580181     
 -0.179100099880789     
 -0.179173397351973     
 -0.206647483229873     
 -0.206814689536718     
 -0.335613710457126     
 -0.341589193804160     
 -8.410831654884018E-002
 -8.457388640090902E-002
 -1.617166200167278E-002
 -1.705981971482768E-002
 -0.342502666385386     
 -0.306393197178487     
  0.741557976149670     
  0.741928245702119     
 -0.345873214641618     
 -0.343123747009019     
 -0.130698463833058     
 -0.130458536443410     
 -1.526483527870428E-003
 -0.278764473293745     
 -6.257179864582888E-004
 -0.344438966080756     
  0.740984909391019     
 -0.283267755341648     
 -0.164091704132393     
 -0.164231394556456     
 -0.349516071549964     
 -6.912752034286924E-002
 -6.979872551825600E-002
  1.418378232536037E-002
  1.498954877158514E-002
 -0.314020445650546     
 -0.112822327336028     
 -0.113145165620856     
  0.739871634762526     
 -0.235441208865415     
 -0.234715154609274     
 -5.518458781373124E-002
 -5.605950163227482E-002
 -0.321215490351051     
 -0.189791260584241     
 -0.189800661123209     
  3.035280513497162E-002
  0.316199896019451     
  0.316171026380609     
  0.330609492957002     
  0.330479973111111     
  2.985007303688776E-002
  0.301979699350167     
  0.301806501107234     
  0.345127686737314     
  0.345285193901840     
  4.532150301050988E-002
  4.533519889027188E-002
 -0.219867239662235     
 -0.220177908463458     
 -0.248787439451357     
 -0.250143472844026     
  0.287599169728608     
  0.287147781619250     
  0.360020175818233     
  0.360172900130868     
  6.060471827305565E-002
  6.014499610979611E-002
  0.757561777790760     
  0.272298804620948     
  0.272985600189142     
  0.375152274279803     
  0.375006158674902     
 -0.348892290510506     
  0.757663757749683     
  0.723670014456698     
  0.724768514447641     
  7.572065984820425E-002
  7.513300270986632E-002
  0.257470246219955     
  0.258230493153409     
  0.390178275620757     
  0.390027239842612     
  0.707661644260230     
  0.708670939471567     
  0.243386750646037     
  0.242690550713763     
  0.405077130941348     
  0.405245262489428     
 -4.137132104596936E-002
 -4.246065334320420E-002
  9.029914767178963E-002
  9.077555952943682E-002
  0.692726781091017     
  0.691830152658553     
  0.227859115528697     
  0.228466449738515     
  0.420178610221148     
  0.420370942157395     
  0.105549794940919     
  0.105854409038683     
  0.677061656678703     
  0.676273643005373     
  0.212903297593287     
  0.213452571998530     
  0.120846908543201     
  0.121035940578298     
  0.435573261483323     
  0.435356128990812     
 -0.292403259681463     
  0.660935942173427     
  0.661629806434566     
  0.197797253486654     
  0.198305324761317     
  0.136383049161613     
  0.136191656181170     
 -0.147402696942738     
 -0.147588434778000     
  0.182518815678311     
  0.182980277416687     
  0.151897334475949     
  0.151610435444808     
  0.450822014852921     
  0.450584698133725     
  0.167088044125605     
  0.167479310902898     
  0.645698103429169     
  0.646312417977663     
  0.465700010980348     
  0.465950217337668     
  0.631002625799014     
  0.630455817662500     
 -0.353499928843239     
  0.480548709384313     
  0.480806335307846     
  0.615647756449918     
  0.615159973612363     
  0.495465391575580     
  0.495201874240541     
  0.599890804514397     
  0.600325884703460     
 -0.263437693176284     
 -0.265763212114521     
  0.510075410677734     
  0.509804379051113     
  0.584741518165103     
  0.585132305530446     
  0.524457350785607     
  0.524739862144637     
  0.569927138118777     
  0.569571300151315     
  0.539260730402077     
  0.539561000925601     
  0.554653791485696     
  0.554328048718504     
  0.756576634121290     
 -0.345250024071906     
 -0.352387334285202     
 -0.297962688209368     
 -2.779344698801080E-002
 -2.650480753739655E-002
 -9.614292227241569E-002
 -9.566162800449711E-002
 -0.329150035427148     
 -0.358224236449735     
 -0.337139528709430     
 -0.169549536827182     
 -0.169659885528354     
 -0.203090275614721     
 -0.203152079699948     
 -0.354879135124298     
 -1.187008466000402E-002
 -1.048478301776585E-002
  0.756271362800479     
  0.754348886053232     
 -0.306505421004257     
 -0.362821137414793     
 -8.047696701957605E-002
 -7.976448189265792E-002
 -0.358195159607887     
  4.433170025207631E-003
 -0.281849182470031     
 -0.126101564253619     
 -0.125830245795997     
  5.816711807780956E-003
 -0.360527650267462     
 -0.359164734756684     
 -0.278119191302064     
  0.738638050130763     
 -0.366957594745095     
 -6.552494843394256E-002
 -6.448296802391354E-002
 -0.234850754228020     
 -0.235326617873752     
  2.197140851248620E-002
  2.074264055855795E-002
 -0.312627732412295     
 -0.345269357750074     
  0.736805025791451     
 -0.354390673471687     
  0.323862965270969     
  0.323727502918039     
  0.310155108767387     
  0.310235530129303     
  3.725100655012206E-002
  0.772336629031622     
  3.679424718485786E-002
  0.338172359865464     
  0.337975666907636     
  0.296458518026434     
  0.295932160316362     
  0.352917219220656     
  0.353093309325110     
  0.774228274825246     
  5.168102078147061E-002
  5.241255426423307E-002
 -5.124115102908002E-002
 -5.252050459017930E-002
  0.282043502761086     
  0.280943782979409     
  0.367993381016707     
  0.368142290073007     
  0.774036833092810     
 -0.321368831136794     
  6.768020950313554E-002
  6.643713353036189E-002
 -0.364227758204945     
  0.265957144841370     
  0.267369541194820     
  0.383243548165448     
  0.383096633381774     
  0.719576262518164     
  0.721243573074898     
  0.251269512784004     
  0.252571791216512     
  8.175936458999865E-002
  8.279060525414014E-002
  0.398377558463606     
  0.398205533349815     
 -0.184817201511892     
 -0.184874378771766     
  0.702783096113278     
  0.704252732620873     
  0.237684189548754     
  0.236609422340080     
 -0.107503867960840     
 -0.107920271203050     
  9.788263035231569E-002
  9.720946072223854E-002
  0.774683956331236     
  0.413355769876800     
  0.413570495933513     
  0.687901894967217     
  0.686620160192067     
 -0.247950158522599     
 -0.246969379667400     
  0.221731539124195     
  0.222694183679174     
  0.113075899396404     
  0.112716857412857     
  0.428622079484698     
  0.428884419735368     
  0.206632387698788     
  0.207551736760862     
  0.670981069359101     
  0.672104525628329     
  0.128252949769827     
  0.128502571164746     
  0.191289940857914     
  0.192159955448267     
  0.144285030777383     
  0.143870845614080     
  0.176410277054828     
  0.175609182940656     
  0.444380994542049     
  0.444076504941391     
  0.160355729314098     
  0.159691062079605     
  0.655592960094728     
  0.656585153161142     
 -0.370420566099840     
 -0.217936149037953     
 -0.218051989591952     
  0.460020120715508     
  0.459685259507488     
  0.641125958158591     
  0.640244192606149     
  0.475127711676589     
  0.474778947022229     
  0.625553585161534     
  0.624767748174058     
 -0.369854670553084     
  0.489638747898058     
  0.489279601604707     
 -0.362100004850531     
  0.609087609601894     
  0.609785367761365     
 -4.017394720194710E-002
 -3.848684495818071E-002
  0.504044594321083     
  0.503674154849919     
  0.593683176319006     
  0.594297109935250     
  0.518460054247616     
  0.518072995915430     
  0.579226795204810     
  0.578674958119220     
  0.532622876718646     
  0.533034572158751     
  0.563592910676134     
  0.563089588660581     
  0.547467266448013     
  0.547916768721903     
 -0.291931669611113     
 -0.154515423547734     
 -0.154657373129017     
  0.769757082365597     
 -0.261800179000944     
 -0.263508003868660     
 -9.109010637669465E-002
 -9.042143492301570E-002
 -0.296353776516390     
 -2.336643274701034E-002
 -2.139629985660551E-002
 -0.362725532924840     
  0.753880921582331     
 -0.138077966863188     
 -0.138265423154785     
 -0.375337150205432     
 -0.327796188157258     
 -0.337591973941354     
 -0.371038466041132     
  0.772756043819503     
 -0.373077862034688     
 -6.170523021521195E-003
 -4.192952670289851E-003
 -7.593045669498304E-002
 -0.374703045416117     
 -7.491409221757156E-002
  0.751103258515870     
 -0.167129041201175     
 -0.167227127149529     
 -0.199229571041288     
 -0.199261826178662     
 -0.380673892563953     
 -0.305461592657518     
 -0.373000217774654     
 -0.277655860384935     
 -0.280585895892390     
 -0.378017027675561     
 -0.235010370030407     
 -0.234897083472630     
  1.097983203847540E-002
  1.307595867588844E-002
  0.788713261147556     
 -0.119068337031952     
 -0.118776247699906     
 -0.380364043590204     
  0.735047536056702     
 -0.385609783741839     
 -0.355457103903645     
  3.017603210721153E-002
  2.796565863124095E-002
  0.317619622658441     
  0.317435649107411     
  0.330347713860267     
  0.330030937790588     
 -5.860041439837514E-002
  0.305441299609716     
  0.305622058034580     
  4.383950121657535E-002
  0.791882273196289     
 -0.310245889474207     
 -0.344231332285972     
 -5.681242076675126E-002
  0.732547282946723     
  4.422815959408712E-002
  0.345755395612553     
  0.345517240016800     
  0.290033865904297     
  0.291269627575617     
  0.791000979933678     
  5.693122495619649E-002
  0.360799405933249     
  0.360946244922201     
  5.962278222749493E-002
  0.276593936575556     
  0.274232112558362     
  0.376157315385588     
  0.376039709489115     
  7.281623212017649E-002
  7.474311947593419E-002
  0.259469786331228     
  0.261821984951853     
 -0.380514353420192     
 -0.389810962945400     
  0.391366054319343     
  0.391219363690688     
  0.714215222154208     
  0.716399889193007     
  0.245361713714029     
  0.246977024027947     
  0.792672010562993     
  8.850825042006580E-002
  8.977823064995276E-002
  0.406577323010223     
  0.406365213621149     
  0.232051640873130     
  0.230682604218192     
  0.792380897777092     
  0.696959365664956     
  0.698836139969826     
  0.104882255159608     
  0.104276186693895     
 -0.102106571013920     
  0.215634226676680     
  0.216998478698374     
 -0.101597476823001     
  0.421594966590170     
  0.421888910785194     
  0.120183670542722     
  0.120024477774349     
  0.681004880355869     
  0.682643251596015     
  0.200361406969093     
  0.201730131655112     
 -0.150425978662726     
 -0.150529551811817     
  0.135734179164699     
  0.135963826484497     
  0.184732657435913     
  0.185995574278911     
  0.151621305201511     
  0.152545879610778     
  0.437082270609935     
  0.437450787427360     
  0.168234655736934     
  0.169482271494804     
 -0.320036591478772     
  0.665525190523524     
  0.666974903703545     
  0.770503526576576     
  0.453473271912344     
  0.453044426021768     
  0.650200534614623     
  0.651493217200818     
  0.470313058697160     
  0.469847857656063     
  0.635903859826563     
  0.634744674251492     
  0.483993170233502     
  0.483537587107833     
 -0.215377597418395     
 -0.215454222794393     
  0.619920555265900     
  0.618882513898418     
 -0.255281458672684     
 -0.254501667430767     
  0.497863841696488     
  0.498356995198468     
  0.602089944565869     
  0.603006331092602     
  0.512237603585846     
  0.511749805701135     
  0.587549239529598     
  0.588323293020108     
  0.526598642467867     
  0.526055544910535     
  0.573341858848672     
  0.574089828988205     
  0.540347778467776     
  0.540905783951873     
  0.555076954961170     
  0.555733348555143     
 -0.180030856427581     
 -0.180093186669983     
 -0.386901771975627     
 -3.658476986419252E-002
 -3.376117954998306E-002
  0.785884572273849     
 -0.291189533716634     
 -0.381664835189322     
  0.766547843734442     
 -8.414683161073983E-002
 -8.319568745772211E-002
 -0.374905562630318     
  0.790236643912841     
 -0.362309918666591     
 -0.324974213130204     
 -0.294678369316850     
 -1.790710168643461E-002
 -0.393151814755416     
 -1.512301777286637E-002
  0.750513772728582     
 -0.131544793546331     
 -0.131677656239125     
 -0.389653569164661     
 -0.387095248855007     
 -0.336897124929771     
 -0.393215123412136     
 -0.392829964813011     
  2.772854118130088E-003
  4.008620882035571E-004
 -0.399804667352200     
  0.746961421336945     
  0.805356849882601     
 -0.397060793542074     
 -0.234535790028080     
 -0.234882417260234     
 -0.301476457077832     
 -0.163422359991790     
 -0.163479111248314     
 -0.193912617491822     
 -0.193959535657855     
 -0.400116303610767     
 -0.108428643889433     
 -0.108152407703207     
 -0.279205928549593     
 -0.281240214951204     
  1.820613246025525E-002
 -0.395870300205583     
  2.172816553840161E-002
  0.788246227050557     
 -0.405666304392827     
  0.730005485099476     
  0.810280625861440     
  4.300674807757059E-002
  3.655856076711682E-002
  0.808357364701587     
  0.318217918911143     
  0.317532884658519     
  0.338360881267649     
  0.337940699511828     
  0.300602658598324     
  0.300780567545758     
 -0.355620639070879     
  5.175265266372132E-002
  0.353507241384287     
  0.353362013150198     
  0.726909224307041     
  0.282967399067948     
  0.286120018465640     
 -0.381962656879038     
 -0.341991332824242     
  6.668228351139092E-002
  0.368872449098178     
  0.368913319556263     
  0.270957970618756     
  0.265940111694723     
  6.362662987427294E-002
  0.811582749672996     
  7.945750268072149E-002
  8.169338448291147E-002
  0.253980151401556     
  0.256494450451970     
 -0.304841653493223     
  0.384222369967204     
  0.384150265847199     
  0.810611740557213     
  0.240078546568691     
  0.241279157564439     
  9.649346568601319E-002
  9.535746710510208E-002
  0.399509982811802     
  0.399345528021923     
  0.706735637141556     
  0.709357448327657     
 -0.410586335207067     
  0.226718441684952     
  0.224594234470510     
  0.811727658708613     
  0.782958411813248     
 -4.830692610718668E-002
  0.111724313041773     
  0.111672113948795     
  0.414354576680547     
  0.414648146466370     
  0.690555350235137     
  0.692749003465392     
  0.209708566601084     
  0.211278722721650     
  0.127332279429224     
  0.126827245913860     
 -0.398972532644009     
 -0.251444307811063     
 -0.251525757664705     
  0.194065163153952     
  0.196414963923540     
 -4.476398994925657E-002
  0.143149203720064     
  0.143342866178151     
  0.179772047846792     
  0.178717616114865     
  0.429675398877893     
  0.430106844363787     
  0.158904052356921     
  0.161781687528283     
  0.675491911517387     
  0.677529019422702     
  0.445368905865534     
  0.445884778442960     
  0.659935465406401     
  0.661683029125453     
  0.462714931643580     
  0.462098861057659     
  0.645174915259901     
  0.646832473785275     
 -6.596103126666515E-002
  0.486485535831297     
  0.485839907564974     
  0.630604845771243     
  0.629176942758214     
  0.613378778669362     
  0.614742621677524     
  0.513695483085728     
  0.513005841647923     
  0.589887779952330     
  0.591011321898805     
 -6.383180282313655E-002
 -0.147860033036549     
 -0.147844117529727     
  0.540437140298010     
  0.541225078814937     
  0.565680401602805     
  0.566655379138295     
  0.802364965369260     
  0.767850257015742     
 -0.317161120484797     
  0.808207843869528     
 -0.414776834277511     
 -0.402046894348137     
 -0.403130540702020     
 -3.145393530426219E-002
 -2.613722549867832E-002
 -0.171640449077449     