 TITLE="euler solver on unstructured grid" 
 VARIABLES= "X" "Y"  "P" "Rou" "U"  "V"  "nuT"
 ZONE NODES=        5306  ELEMENTS=       10382  ZONETYPE=FETRIANGLE
 DATAPACKING=BLOCK
 VARLOCATION=([3-7]=CELLCENTERED)
 -0.272999989813357     
 -0.265004548809870     
 -0.257006321721489     
 -0.249007629987967     
 -0.241008693876699     
 -0.233009599113375     
 -0.225010389751474     
 -0.217011091984956     
 -0.206344919055557     
 -0.195679645815153     
 -0.185013290421007     
 -0.174346865374738     
 -0.163681380499039     
 -0.153014842937804     
 -0.142348258346503     
 -0.131682631785289     
 -0.121015966826155     
 -0.110349266743301     
 -9.968353451326965E-002
 -8.901677221975940E-002
 -7.834998194633676E-002
 -6.768416577656794E-002
 -5.701732490117607E-002
 -4.216050891706993E-002
 -2.730365155841250E-002
 -1.244675609944880E-002
  2.411174780849028E-003
  1.726813899895915E-002
  3.212513387590945E-002
  4.698215792340671E-002
  6.183920935549909E-002
  7.669628638623471E-002
  9.155338782497899E-002
  0.106411511885736     
  0.121268657675618     
  0.136125824003946     
  0.150983009680086     
  0.165840214108721     
  0.180697435801557     
  0.195554674163277     
  0.210412928300860     
  0.225270197916738     
  0.240127481820230     
  0.254984779416020     
  0.269842090406448     
  0.284699414196199     
  0.299556749892295     
  0.314415097494692     
  0.329272456408162     
  0.344129826037343     
  0.358987206382236     
  0.373844596847522     
  0.388701997135543     
  0.403559407246300     
  0.418417826882089     
  0.433275255745340     
  0.448132693836009     
  0.462990140856437     
  0.477847596508966     
  0.492705061091254     
  0.507562534603302     
  0.522421016747405     
  0.537278507523654     
  0.552136007229662     
  0.566993515567771     
  0.581851033133297     
  0.596708559330925     
  0.611566095053628     
  0.626424640003706     
  0.641282194181245     
  0.656139758479179     
  0.670997332599847     
  0.685854916840910     
  0.700712511797683     
  0.715570117470168     
  0.726999965886308     
  0.715571815315065     
  0.700715422303890     
  0.685859018577004     
  0.671002604134406     
  0.656146179571415     
  0.641289745185689     
  0.626433300679568     
  0.611575846946075     
  0.596719383985118     
  0.581862911499086     
  0.567006430380953     
  0.552149940035401     
  0.537293441057749     
  0.522436933150338     
  0.507579416610871     
  0.492722891439258     
  0.477866357337887     
  0.463009814306756     
  0.448153262643524     
  0.433296702050533     
  0.418440132230125     
  0.403582553182342     
  0.388725964609439     
  0.373869366213801     
  0.359012757995427     
  0.344156139656659     
  0.329299510602181     
  0.314442870831991     
  0.299585219750817     
  0.284728556763253     
  0.269871881869344     
  0.255015194176113     
  0.240158493088242     
  0.225301778308075     
  0.210445049240292     
  0.195587304694305     
  0.180730544372365     
  0.165873767381541     
  0.151016973126515     
  0.136160160118996     
  0.121303327763664     
  0.106446474869886     
  9.158860024707197E-002
  7.673170300215648E-002
  6.187478134923224E-002
  4.701783409766475E-002
  3.216085946150214E-002
  1.730385565479256E-002
  2.446821189242809E-003
 -1.241124661403058E-002
 -2.726834983872676E-002
 -4.212549116372915E-002
 -5.698267386328288E-002
 -6.764983204278768E-002
 -7.831601492800409E-002
 -8.898322370947812E-002
 -9.965046047086455E-002
 -0.110316727295818     
 -0.120984026267861     
 -0.131651360363623     
 -0.142317732857395     
 -0.152985147320991     
 -0.163652608814653     
 -0.174319122993938     
 -0.184986697002567     
 -0.195654340663317     
 -0.206321066477898     
 -0.216988892603396     
 -0.224989594128073     
 -0.232990384057366     
 -0.240991288585236     
 -0.248992351765164     
 -0.256993659322836     
 -0.264995431525650     
  -10.2759761332352     
  -9.27597617753556     
  -8.27597622183589     
  -7.27597626613623     
  -6.27597631043656     
  -5.27597635473690     
  -4.27597639903723     
  -3.27597644333757     
  -2.27597648763790     
  -1.27597653193824     
 -0.275976576238570     
  0.724023379461095     
   1.72402333516076     
   2.72402329086043     
   3.72402324656009     
   4.72402320225976     
   5.72402315795942     
   6.72402311365909     
   7.72402306935875     
   8.72402302505842     
   9.72402298075808     
   9.72432063940060     
   9.72461829804312     
   9.72491595668565     
   9.72521361532817     
   9.72551127397069     
   9.72580893261321     
   9.72610659125573     
   9.72640424989825     
   9.72670190854077     
   9.72699956718330     
   9.72729722582582     
   9.72759488446834     
   9.72789254311086     
   9.72819020175338     
   9.72848786039590     
   9.72878551903842     
   9.72908317768094     
   9.72938083632347     
   9.72967849496599     
   9.72997615360851     
   8.72997619790884     
   7.72997624220918     
   6.72997628650951     
   5.72997633080985     
   4.72997637511018     
   3.72997641941052     
   2.72997646371085     
   1.72997650801119     
  0.729976552311521     
 -0.270023403388144     
  -1.27002335908781     
  -2.27002331478747     
  -3.27002327048714     
  -4.27002322618681     
  -5.27002318188647     
  -6.27002313758614     
  -7.27002309328580     
  -8.27002304898547     
  -9.27002300468513     
  -10.2700229603848     
  -10.2703206190273     
  -10.2706182776698     
  -10.2709159363124     
  -10.2712135949549     
  -10.2715112535974     
  -10.2718089122399     
  -10.2721065708824     
  -10.2724042295250     
  -10.2727018881675     
  -10.2729995468100     
  -10.2732972054525     
  -10.2735948640951     
  -10.2738925227376     
  -10.2741901813801     
  -10.2744878400226     
  -10.2747854986651     
  -10.2750831573077     
  -10.2753808159502     
  -10.2756784745927     
 -0.221581980469708     
 -0.221710700611324     
 -0.212428211031906     
 -0.212512467260457     
 -0.230412169273206     
 -0.230219518778827     
 -0.218112164479149     
 -0.218341707617895     
 -0.202505091112354     
 -0.202453086547181     
 -0.239381932519124     
 -0.239118070517246     
 -0.226666285094582     
 -0.226998794812569     
 -0.209025898772398     
 -0.209188569578480     
 -0.248346465183037     
 -0.248626859716548     
 -0.192162778856637     
 -0.192135999569287     
 -0.235882068619050     
 -0.236378830020473     
 -0.276086360897202     
 -0.275169059213249     
 -0.257791325444725     
 -0.257665399499249     
 -0.215789453527736     
 -0.216107304602638     
 -0.199068616375816     
 -0.199175251579834     
 -0.223101013184488     
 -0.223495853432786     
 -0.282816015978317     
 -0.282248244815813     
 -0.181790250690828     
 -0.181782029248604     
 -0.266671929162358     
 -0.266598793014594     
 -0.284072234884538     
 -0.281990493357885     
 -0.246865782870423     
 -0.246189060746886     
 -0.289502736344176     
 -0.206230908436736     
 -0.206457146139241     
 -0.275499839757521     
 -0.273553718973802     
 -0.171544543861527     
 -0.171548337491169     
 -0.291891038257169     
 -0.188790396862109     
 -0.188852773047964     
 -0.231013025064605     
 -0.231613249057940     
 -0.290915477258014     
 -0.223831189093297     
 -0.224377159950259     
 -0.161264395986623     
 -0.161275386276582     
 -0.257707195124349     
 -0.257033122750629     
 -0.291070396337066     
 -0.214327778088781     
 -0.214736458676119     
 -0.293326343883029     
 -0.195713148419149     
 -0.195858408015038     
 -0.150670456727955     
 -0.150686526146230     
 -0.178835850561243     
 -0.178867722018113     
 -0.284697427654517     
 -0.267790310425229     
 -0.267866517982999     
 -0.241990115202068     
 -0.242955791209947     
 -0.299524711786699     
 -0.278869161262574     
 -0.139758305977303     
 -0.139779877297912     
 -0.300999282163567     
 -0.301947400663157     
 -0.276471607181395     
 -0.203363974209769     
 -0.203637162639558     
 -0.169354174797837     
 -0.169369599187882     
 -0.128731920941547     
 -0.128703462449619     
 -0.224138265497814     
 -0.224836146512834     
 -0.185158371128841     
 -0.185242990112756     
 -0.293619637758889     
 -0.234481421632544     
 -0.235417124426050     
 -0.117658120810073     
 -0.117695862428204     
 -0.254659490900247     
 -0.256090125841822     
 -0.159365860071504     
 -0.159359614175063     
 -0.302178596580379     
 -0.291295760382921     
 -0.303558046471466     
 -0.106714539114472     
 -0.106765243902205     
 -0.212483882284150     
 -0.212952724726760     
 -0.191754912202923     
 -0.191587831945311     
 -0.148338741730813     
 -0.148342332748182     
 -0.303576186565587     
 -0.176347223414389     
 -0.176395142538601     
 -9.581598658742374E-002
 -9.588459647133654E-002
 -0.285061028185369     
 -0.311363768609162     
 -0.267359377460903     
 -0.269012000294091     
 -0.309822486633572     
 -0.310732638579592     
 -0.303967376703382     
 -0.136882327722041     
 -0.136897946491534     
 -0.279479400116467     
 -8.513842037159633E-002
 -8.522786372157819E-002
 -0.313348692464463     
 -0.315303341405705     
 -0.168777903904808     
 -0.168736660460573     
 -7.471381350084789E-002
 -7.483327243736591E-002
 -0.200022732521798     
 -0.199729584824587     
 -0.314783811990487     
 -0.125307180556206     
 -0.125338892539080     
 -0.279077971767780     
 -0.249573470885179     
 -0.251303393029815     
 -0.223363833844480     
 -0.224123924951129     
 -0.179617377494903     
 -0.179709976468385     
 -0.291316224549595     
 -6.359432425565879E-002
 -6.376056593992198E-002
 -0.236183185983493     
 -0.237350086213798     
 -0.114003135960487     
 -0.113949735937442     
 -0.157781843853753     
 -0.157754220413712     
 -0.292014713893261     
 -5.094960192253357E-002
 -5.072719884637459E-002
 -0.317844724346800     
 -0.315731138462992     
 -0.102928649274375     
 -0.103013321068546     
 -0.322721565309031     
 -0.209837533300711     
 -0.210311341588952     
 -0.145592843215692     
 -0.145584121714167     
 -3.677307599310791E-002
 -3.649444392362618E-002
 -0.301696163616695     
 -0.186031220262455     
 -0.185859412933253     
 -0.324130424336130     
 -0.265657854160326     
 -0.268613445390168     
 -9.151827036767804E-002
 -9.164809931732087E-002
 -0.305449929134940     
 -2.206589079358639E-002
 -2.174285739605540E-002
 -0.326471327650826     
 -0.133637640539959     
 -0.133625222919204     
 -8.152525447907091E-002
 -8.168871882828552E-002
 -0.329587590601886     
 -0.279296046000495     
 -0.328852478977199     
 -0.169958939031082     
 -0.170045510132703     
 -0.284685298553381     
 -7.033831610515098E-003
 -6.693252469924482E-003
 -7.210587531817417E-002
 -7.235209858195241E-002
 -0.121112455644039     
 -0.121068004639998     
 -0.195129132742768     
 -0.195414468312916     
  8.172913022617592E-003
  8.485362289684497E-003
 -0.315103751468295     
 -0.236871460513737     
 -0.235714514659033     
 -0.221653292433347     
 -0.222366313889852     
 -5.944089339416303E-002
 -5.980229189221081E-002
 -0.249642006906257     
 -0.251479369443185     
 -0.319934303997393     
  2.363299736744370E-002
  2.342243870630708E-002
  0.322655655771840     
  0.322614572698969     
 -0.110076710137741     
 -0.110156549719569     
  0.337332655846184     
  0.337326653284564     
  0.308074131225726     
  0.307958119793164     
  3.862633076989833E-002
  3.864898607581631E-002
  0.726565692258089     
  0.727045881464827     
 -0.154586025183606     
 -0.154537028533183     
 -0.292381841800936     
 -4.578600761152730E-002
 -4.627090474574476E-002
  0.352136565082793     
  0.352140031514169     
  0.293482171139629     
  0.293254296357665     
 -0.333078202469919     
  5.374206849823266E-002
  5.355206960993007E-002
  0.367027387624458     
  0.367024103009990     
 -0.329568040606656     
  0.278804095162376     
  0.278459770038895     
  0.381954119890545     
  0.381949969034468     
  6.845055737100038E-002
  6.877293203733240E-002
  0.711781179176964     
  0.712253849745727     
  0.264039423385946     
  0.263622617587583     
  0.396906232480270     
  0.396896156042980     
  0.696522614870178     
  0.696948601102427     
  0.249214763042266     
  0.248788944389309     
  8.375220891382516E-002
  8.341552673382052E-002
  0.411884327923705     
  0.411863759332471     
  0.234345414517614     
  0.233948763095007     
  0.681274863137417     
  0.681645909612625     
  9.872189427401458E-002
  9.844166049395592E-002
  0.426892704166816     
  0.426859780123033     
  0.219431276710658     
  0.219067476891159     
  0.666122663996708     
  0.666441748823522     
  0.113721288651945     
  0.113504058086958     
  0.204459550127984     
  0.204120682147409     
  0.441922654631731     
  0.441877924993200     
  0.128782498237495     
  0.128592924662756     
  0.651043388308270     
  0.651317254276399     
  0.189413539651935     
  0.189096972672964     
  0.143917836335459     
  0.143710862989459     
  0.174287157367721     
  0.173999038555670     
  0.456929573486318     
  0.456875400404061     
  0.159104120002707     
  0.158855469435739     
  0.635990726370483     
  0.636225939278656     
  0.471850369811959     
  0.471789397934658     
  0.620931880268410     
  0.621133903831796     
 -9.956163996845166E-002
 -9.970281379303940E-002
 -0.337816733814456     
  0.486602994308834     
  0.486669067481587     
 -0.267117098759705     
 -0.264184437302537     
  0.605871557115885     
  0.606044542161090     
  0.501429682298927     
  0.501358873808321     
  0.590986457807408     
  0.590838353935054     
  0.516190316136655     
  0.516113534376772     
  0.575951964374092     
  0.575824657659040     
  0.531001965093182     
  0.530917179554100     
  0.560913656117545     
  0.560803374569641     
  0.545813319220645     
  0.545909318897305     
 -3.138169871755621E-002
 -3.198286063116627E-002
 -0.335747021437700     
 -0.329701061843025     
 -0.299537324526737     
 -0.142355130141267     
 -0.142375225310975     
 -0.179221567164465     
 -0.179052558776269     
 -0.206516821310053     
 -0.206946329497546     
 -0.335534007058242     
 -0.341564142056134     
 -8.421415444955295E-002
 -8.446839905936983E-002
 -1.627569159439909E-002
 -1.695533371094326E-002
 -0.342528674183496     
 -0.306308779461145     
  0.741570124475933     
  0.741920979421894     
 -0.345828307974476     
 -0.343170169398429     
 -0.130583163207730     
 -0.130574286144992     
 -1.420663788202750E-003
 -0.278678149884530     
 -7.307399875690842E-004
 -0.344504972467454     
  0.740957912978181     
 -0.283354718435274     
 -0.164213005364106     
 -0.164110635565978     
 -0.349450641026821     
 -6.923879228281138E-002
 -6.968776453862507E-002
  1.429035212829616E-002
  1.488415614904644E-002
 -0.314108621884777     
 -0.112939121146822     
 -0.113028820507623     
  0.739904054887048     
 -0.235576198267604     
 -0.234581800693047     
 -5.529884315773383E-002
 -5.594543748232875E-002
 -0.321122841132873     
 -0.189927880442306     
 -0.189664814163061     
  3.024753013769223E-002
  0.316111558110828     
  0.316259455347416     
  0.330522279995030     
  0.330567487274273     
  2.995689303363490E-002
  0.302069507358218     
  0.301716556658623     
  0.345214392634966     
  0.345198942735983     
  4.521639235653218E-002
  4.544192095263973E-002
 -0.219725095512218     
 -0.220321375059591     
 -0.248662739722265     
 -0.250270094086103     
  0.287690678801189     
  0.287056010255266     
  0.360105853140973     
  0.360087766563551     
  6.071118754706226E-002
  6.003973361019194E-002
  0.757543689149990     
  0.272205412305850     
  0.273078842217699     
  0.375068443982066     
  0.375090572430434     
 -0.348899801064587     
  0.757667284080049     
  0.723707807687091     
  0.724734951444553     
  7.582685855363723E-002
  7.502749759768895E-002
  0.257375458068267     
  0.258325418112379     
  0.390095886840339     
  0.390110231396246     
  0.707703330617176     
  0.708632713830323     
  0.243483306899607     
  0.242594396416818     
  0.405158612357760     
  0.405164406806842     
 -4.148834721852322E-002
 -4.234358556531159E-002
  9.019360927865933E-002
  9.088152116894084E-002
  0.692685079503097     
  0.691874789344655     
  0.227761546822839     
  0.228564603994905     
  0.420258510968150     
  0.420291705339318     
  0.105444461424144     
  0.105960173752085     
  0.677017091988337     
  0.676320764533804     
  0.212804300657445     
  0.213552305708059     
  0.120741966835154     
  0.121141522758776     
  0.435495771810555     
  0.435434337495559     
 -0.292307990025318     
  0.660985381534309     
  0.661582639335518     
  0.197696849230147     
  0.198406613499359     
  0.136488387206618     
  0.136087239055107     
 -0.147532080565691     
 -0.147459561067099     
  0.182417079028221     
  0.183083041241668     
  0.152002207041341     
  0.151506677606581     
  0.450746485088125     
  0.450661014116666     
  0.166985162041095     
  0.167583325130204     
  0.645749810972524     
  0.646262759054900     
  0.465774159472187     
  0.465876928153345     
  0.630950558027134     
  0.630509751007585     
 -0.353489330452097     
  0.480620621895363     
  0.480735354264073     
  0.615593421550212     
  0.615216019382129     
  0.495396528008924     
  0.495271737565017     
  0.599948742762820     
  0.600269524587579     
 -0.263321992613215     
 -0.265881085144510     
  0.510008454322475     
  0.509872401206174     
  0.584801282717790     
  0.585074006158070     
  0.524523718231742     
  0.524674627127905     
  0.569866810083243     
  0.569632996330892     
  0.539325596852673     
  0.539497337431391     
  0.554591658140897     
  0.554391463257904     
  0.756601858077847     
 -0.345337023160669     
 -0.352300335160035     
 -0.298060747057961     
 -2.767310185946733E-002
 -2.662472173869625E-002
 -9.602156907590075E-002
 -9.578345798863948E-002
 -0.329248701996491     
 -0.358194433769747     
 -0.337038372050741     
 -0.169689291948127     
 -0.169520735640832     
 -0.202940580107644     
 -0.203302765929831     
 -0.354915889587108     
 -1.174738669032783E-002
 -1.060655390381651E-002
  0.756231207025697     
  0.754396306960688     
 -0.306401225234209     
 -0.362771095788226     
 -8.035229541563405E-002
 -7.988962578429121E-002
 -0.358248374249030     
  4.557267065202983E-003
 -0.281957162559707     
 -0.125967703404620     
 -0.125964626264819     
  5.694067992969052E-003
 -0.360601591758757     
 -0.359186131040077     
 -0.278013574335697     
  0.738590141755020     
 -0.366886149056382     
 -6.539644924073036E-002
 -6.461188011493639E-002
 -0.234698521583921     
 -0.235480719094223     
  2.184885019169989E-002
  2.086732403205867E-002
 -0.312736797946844     
 -0.345378648786116     
  0.736858731486197     
 -0.354280844492739     
  0.323759214088748     
  0.323831231229361     
  0.310050120421271     
  0.310340114238544     
  3.712933246207768E-002
  0.772376259132376     
  3.691884820523436E-002
  0.338068855530452     
  0.338079426550003     
  0.296565189272890     
  0.295824648337315     
  0.353020459685676     
  0.352990488031742     
  0.774197792128776     
  5.155933786529428E-002
  5.253675240826623E-002
 -5.137055434543225E-002
 -5.239131820236358E-002
  0.282152263561586     
  0.280834090323433     
  0.368095614766158     
  0.368040526794633     
  0.774053101412888     
 -0.321255110369834     
  6.780404617901142E-002
  6.631448307768602E-002
 -0.364231697498801     
  0.265846040111246     
  0.267480268550367     
  0.383143101022800     
  0.383197547980852     
  0.719634655545031     
  0.721189883550941     
  0.251157151160415     
  0.252684395839269     
  8.163621202927282E-002
  8.291420801794387E-002
  0.398278545692007     
  0.398305010723039     
 -0.184973546761205     
 -0.184718757807829     
  0.702844739126523     
  0.704194992652283     
  0.237798632776294     
  0.236495530550804     
 -0.107641107308162     
 -0.107783601713709     
  9.800613571623627E-002
  9.708623399665531E-002
  0.774676927339057     
  0.413453780785799     
  0.413472975803092     
  0.687841142375239     
  0.686684228957580     
 -0.248093669989473     
 -0.246828088272225     
  0.221616031352501     
  0.222810468854644     
  0.113199432215411     
  0.112593876069902     
  0.428718565488225     
  0.428788483197458     
  0.206515238474366     
  0.207669896694602     
  0.671047367908883     
  0.672041105841949     
  0.128130377273337     
  0.128626209296898     
  0.191171146470219     
  0.192280017610158     
  0.144408704013785     
  0.143748759184864     
  0.176532159050253     
  0.175488832186422     
  0.444286840815196     
  0.444171293402363     
  0.160478926592084     
  0.159569605249319     
  0.655661503217631     
  0.656519148728127     
 -0.370326345078611     
 -0.217773678060681     
 -0.218215789892864     
  0.459928188709619     
  0.459777927186866     
  0.641057387116992     
  0.640315026886181     
  0.475038749430028     
  0.474868747507133     
  0.625482509883789     
  0.624840855144332     
 -0.369840441872922     
  0.489552239122617     
  0.489367041110594     
 -0.362196301837152     
  0.609162744550604     
  0.609712063721505     
 -4.003848485084940E-002
 -3.862217057577153E-002
  0.503960130857271     
  0.503759634407771     
  0.593759615099753     
  0.594222329486046     
  0.518377305310854     
  0.518156845253295     
  0.579150023969464     
  0.578753248708344     
  0.532705384058721     
  0.532953251403843     
  0.563513724414583     
  0.563170171940887     
  0.547548744685923     
  0.547836573296873     
 -0.291817112891199     
 -0.154665746100801     
 -0.154507591034172     
  0.769820348161423     
 -0.261664010510527     
 -0.263647002040469     
 -9.095012593210901E-002
 -9.056205750516076E-002
 -0.296472323410825     
 -2.322705917753231E-002
 -2.153477837008994E-002
 -0.362845646373066     
  0.753817919499868     
 -0.138229691781680     
 -0.138114238205313     
 -0.375303339752922     
 -0.327916811205804     
 -0.337468142310030     
 -0.371075198634449     
  0.772701746856459     
 -0.372959405947045     
 -6.028834301561526E-003
 -4.333065803322307E-003
 -7.578931336808699E-002
 -0.374762434026885     
 -7.505586615918315E-002
  0.751173579734198     
 -0.167290951287328     
 -0.167065784642715     
 -0.199401062463825     
 -0.199091210587241     
 -0.380619250210789     
 -0.305337260385866     
 -0.373017710289862     
 -0.277530189072015     
 -0.280714983965902     
 -0.378098669954198     
 -0.235186188384629     
 -0.234723148525207     
  1.112259969499606E-002
  1.293535954965307E-002
  0.788768387682806     
 -0.118914337720271     
 -0.118930864384957     
 -0.380469672354674     
  0.734977639402533     
 -0.385532670443392     
 -0.355323011980140     
  3.003665720430986E-002
  2.810856801577762E-002
  0.317501905157834     
  0.317552938675070     
  0.330227445780599     
  0.330151198494735     
 -5.845002230050327E-002
  0.305319118613483     
  0.305743098180176     
  4.370383326169937E-002
  0.791838195609814     
 -0.310375947888529     
 -0.344364162333483     
 -5.696344819975540E-002
  0.732623181054285     
  4.437011113735657E-002
  0.345635144859905     
  0.345637821667588     
  0.289907869333338     
  0.291393409408659     
  0.791031533072920     
  5.679186051369108E-002
  0.360919377588829     
  0.360826677379005     
  5.976407842417807E-002
  0.276720028493213     
  0.274104235958539     
  0.376038974105306     
  0.376158401064011     
  7.267566482085770E-002
  7.488406857001323E-002
  0.259341768104807     
  0.261950195445552     
 -0.380516539514862     
 -0.389709708234413     
  0.391249124516015     
  0.391336574667606     
  0.714294845461872     
  0.716325226964136     
  0.245231991167039     
  0.247107280528541     
  0.792652941973725     
  8.836719128549549E-002
  8.991909347283511E-002
  0.406461780879786     
  0.406481027406824     
  0.232183961150211     
  0.230551046758899     
  0.792386718121623     
  0.697040791016850     
  0.698758874137868     
  0.105023261043537     
  0.104135261327119     
 -0.101952861497142     
  0.215500808677482     
  0.217132925942099     
 -0.101751907175393     
  0.421709460764743     
  0.421774741078910     
  0.120325066811546     
  0.119883962312792     
  0.681088131037257     
  0.682563573714775     
  0.200226082125401     
  0.201866853714777     
 -0.150594095510362     
 -0.150361946929775     
  0.135594065354020     
  0.136105820765732     
  0.184595289551946     
  0.186134739329869     
  0.151481493360954     
  0.152688554294772     
  0.437195404380477     
  0.437338079091372     
  0.168095206393248     
  0.169623995719608     
 -0.319900663311591     
  0.665610510224956     
  0.666892701486490     
  0.770424844226996     
  0.453362258742323     
  0.453155998368795     
  0.650288136214175     
  0.651408361575671     
  0.470204698950168     
  0.469956927797648     
  0.635816247476632     
  0.634834721281135     
  0.483890723385701     
  0.483640876402142     
 -0.215564109849739     
 -0.215268813518158     
  0.619830143872632     
  0.618975086274131     
 -0.255443850375169     
 -0.254342148069955     
  0.497967889820088     
  0.498253890956315     
  0.602184569330023     
  0.602913616156425     
  0.512139214857393     
  0.511849245311358     
  0.587642025838494     
  0.588232205859276     
  0.526498705255439     
  0.526156635605245     
  0.573440226906405     
  0.573993030816510     
  0.540445005041825     
  0.540809815888695     
  0.555177082805076     
  0.555634611574611     
 -0.180207635875559     
 -0.179916999567806     
 -0.386884665321366     
 -3.642888976740347E-002
 -3.391671564727489E-002
  0.785964248180534     
 -0.291057566450579     
 -0.381795909633794     
  0.766635298658238     
 -8.398523082886787E-002
 -8.335826563513712E-002
 -0.374761347676781     
  0.790167470715246     
 -0.362455242188394     
 -0.325117774554531     
 -0.294815080766667     
 -1.774743301206815E-002
 -0.393114995969353     
 -1.528067988359887E-002
  0.750426890325535     
 -0.131717454914956     
 -0.131505564699458     
 -0.389676863228448     
 -0.387140877597523     
 -0.336749093593525     
 -0.393088222212052     
 -0.392895100830618     
  2.613857731792731E-003
  5.619229168594992E-004
 -0.399746288744406     
  0.747055610372285     
  0.805428307562655     
 -0.397150146116232     
 -0.234736391062046     
 -0.234683336536307     
 -0.301331113613529     
 -0.163601613522348     
 -0.163300341669035     
 -0.194106629686906     
 -0.193766112683056     
 -0.400231407384881     
 -0.108253038286137     
 -0.108328813414947     
 -0.279056284177159     
 -0.281394246647509     
  1.836786011244418E-002
 -0.395716219398927     
  2.156876339435104E-002
  0.788151788252319     
 -0.405583818395318     
  0.729912429474734     
  0.810221870135662     
  4.285088349530151E-002
  3.671986904619034E-002
  0.808403612317430     
  0.318081005473320     
  0.317669184852827     
  0.338222001611491     
  0.338079951291608     
  0.300463310411564     
  0.300917518429831     
 -0.355460680334757     
  5.190965033272554E-002
  0.353371356168647     
  0.353498376895687     
  0.727008367166267     
  0.282818655850459     
  0.286262525738884     
 -0.382120512686617     
 -0.342149120797493     
  6.684173902449683E-002
  0.369010546746584     
  0.368775534627375     
  0.271099873513503     
  0.265797035076080     
  6.346734367871049E-002
  0.811550293814834     
  7.930008095154950E-002
  8.184964203801207E-002
  0.253836800912232     
  0.256641486661265     
 -0.304993178662497     
  0.384089347183907     
  0.384283393051398     
  0.810632089181758     
  0.239929997742456     
  0.241425465424513     
  9.665294073996882E-002
  9.519687681164464E-002
  0.399375272545570     
  0.399480208100850     
  0.706836846055888     
  0.709261298616810     
 -0.410478226709819     
  0.226870039404695     
  0.224446572535223     
  0.811721674325227     
  0.783063014324770     
 -4.813524388217605E-002
  0.111881193039145     
  0.111515408876692     
  0.414485060701283     
  0.414517707745060     
  0.690654065932560     
  0.692654566616340     
  0.209555836577286     
  0.211429772903996     
  0.127172964877584     
  0.126988182086657     
 -0.398972418744683     
 -0.251631138302173     
 -0.251341606819999     
  0.193913233076421     
  0.196571898217078     
 -4.493695880558465E-002
  0.142993312366962     
  0.143502109150105     
  0.179929232040688     
  0.178559801243521     
  0.429807947751927     
  0.429974410162983     
  0.158744685059198     
  0.161947476359857     
  0.675595535275097     
  0.677429207379863     
  0.445497372133759     
  0.445756639559553     
  0.660038003351071     
  0.661583766485599     
  0.462584513295278     
  0.462229766014334     
  0.645283170421098     
  0.646727173088188     
 -6.578222839749390E-002
  0.486360478076368     
  0.485965739775313     
  0.630499564609424     
  0.629284773107688     
  0.613493377152914     
  0.614630317331284     
  0.513573992169744     
  0.513128371569748     
  0.590003893172035     
  0.590897093267293     
 -6.401260436723799E-002
 -0.148051944741837     
 -0.147652620791126     
  0.540557916247276     
  0.541105596092569     
  0.565802572910773     
  0.566534780718357     
  0.802461128895727     
  0.767746191112816     
 -0.317001089807420     
  0.808123314657588     
 -0.414641768612988     
 -0.402189044523265     
 -0.403110902068315     
 -3.127584305603431E-002
 -2.631432240922202E-002
 -0.171837231919754     