 TITLE="euler solver on unstructured grid" 
 VARIABLES= "X" "Y"  "P" "Rou" "U"  "V"  "nuT"
 ZONE NODES=        5306  ELEMENTS=       10382  ZONETYPE=FETRIANGLE
 DATAPACKING=BLOCK
 VARLOCATION=([3-7]=CELLCENTERED)
 -0.272869445031436     
 -0.264399685131531     
 -0.256219364510035     
 -0.248087314691273     
 -0.239980652655372     
 -0.231890472578379     
 -0.223812197856322     
 -0.215743107265214     
 -0.204995335377417     
 -0.194258984062333     
 -0.183530167973432     
 -0.172808587866492     
 -0.162094222804287     
 -0.151384331591282     
 -0.140679326212250     
 -0.129979680497964     
 -0.119283024328887     
 -0.108590017073789     
 -9.790134902444252E-002
 -8.721480467630929E-002
 -7.653116709016007E-002
 -6.585121932676577E-002
 -5.517283865058765E-002
 -4.030389515042822E-002
 -2.543924994724519E-002
 -1.057856288804035E-002
  4.279443855954381E-003
  1.913298770219849E-002
  3.398334647946014E-002
  4.883067480273843E-002
  6.367515821003238E-002
  7.851698223934095E-002
  9.335627058266341E-002
  0.108194208299769     
  0.123028889116116     
  0.137861436245476     
  0.152691973379847     
  0.167520562365228     
  0.182347357816619     
  0.197172421580020     
  0.211996845946199     
  0.226818662794618     
  0.241638995339045     
  0.256457905425479     
  0.271275423976921     
  0.286091612839371     
  0.300906564781827     
  0.315721279326060     
  0.330533819274530     
  0.345345245995005     
  0.360155559487487     
  0.374964821597975     
  0.389773063249468     
  0.404580284441967     
  0.419387515620241     
  0.434192788663751     
  0.448997103094265     
  0.463800489834785     
  0.478602979808310     
  0.493404542091840     
  0.508205176685375     
  0.523005914033685     
  0.537804755093230     
  0.552602668462780     
  0.567399685065335     
  0.582195743054895     
  0.596990904277460     
  0.611785075964031     
  0.626579288559377     
  0.641371543019958     
  0.656162746098545     
  0.670952928718137     
  0.685742059955736     
  0.700530077965340     
  0.715316982746951     
  0.726652324657207     
  0.715140597955921     
  0.700227712873003     
  0.685315941018079     
  0.670405282391149     
  0.655495675146213     
  0.640587088360272     
  0.625679552956325     
  0.610771976643603     
  0.595866358465645     
  0.580961729823682     
  0.566057997948714     
  0.551155224686740     
  0.536253348191762     
  0.521352399386779     
  0.506451347827021     
  0.491552192556027     
  0.476653964975029     
  0.461756665084025     
  0.446860261960017     
  0.431964786526003     
  0.417070269704985     
  0.402175711975191     
  0.387283143303161     
  0.372391595090126     
  0.357501067336086     
  0.342611590964039     
  0.327723227819986     
  0.312835977903928     
  0.297948903540093     
  0.283064065618021     
  0.268180464615942     
  0.253298193302856     
  0.238417313524762     
  0.223537856204661     
  0.208659883188551     
  0.193782518646663     
  0.178907792545535     
  0.164034798132398     
  0.149163597253251     
  0.134294344523093     
  0.119427101787924     
  0.104561992739744     
  8.969814154878111E-002
  7.483764002757531E-002
  5.997967419235552E-002
  4.512436773512109E-002
  3.027190619387104E-002
  1.542247510660429E-002
  5.762290883200454E-004
 -1.426755307575291E-002
 -2.910665588107645E-002
 -4.394180054242172E-002
 -5.877264690679066E-002
 -6.941806366515008E-002
 -8.005991429275387E-002
 -9.070007414114220E-002
 -0.101337327227547     
 -0.111970457569198     
 -0.122601247748638     
 -0.133228389014098     
 -0.143850541690810     
 -0.154469333746316     
 -0.165083239967849     
 -0.175690673296642     
 -0.186292890624239     
 -0.196887871969876     
 -0.207473319045790     
 -0.218049344592531     
 -0.225972602316441     
 -0.233886675909401     
 -0.241788844147427     
 -0.249674530426544     
 -0.257534828922801     
 -0.265346856616323     
  -9.95885714361846     
  -8.95933537392982     
  -7.95981360424118     
  -6.96029183455254     
  -5.96077006486389     
  -4.96124829517525     
  -3.96172652548661     
  -2.96220475579796     
  -1.96268298610932     
 -0.963161216420676     
  3.636055326796728E-002
   1.03588232295661     
   2.03540409264525     
   3.03492586233390     
   4.03444763202254     
   5.03396940171118     
   6.03349117139983     
   7.03301294108847     
   8.03253471077712     
   9.03205648046576     
   10.0315782501544     
   10.0006552503245     
   9.96973225049452     
   9.93880925066458     
   9.90788625083464     
   9.87696325100470     
   9.84604025117476     
   9.81511725134482     
   9.78419425151488     
   9.75327125168494     
   9.72234825185500     
   9.69142525202506     
   9.66050225219512     
   9.62957925236518     
   9.59865625253524     
   9.56773325270530     
   9.53681025287536     
   9.50588725304542     
   9.47496425321548     
   9.44404125338554     
   9.41311825355559     
   8.41359648386695     
   7.41407471417831     
   6.41455294448966     
   5.41503117480102     
   4.41550940511238     
   3.41598763542373     
   2.41646586573509     
   1.41694409604645     
  0.417422326357804     
 -0.582099443330840     
  -1.58162121301948     
  -2.58114298270813     
  -3.58066475239677     
  -4.58018652208541     
  -5.57970829177406     
  -6.57923006146270     
  -7.57875183115134     
  -8.57827360083999     
  -9.57779537052863     
  -10.5773171402173     
  -10.5463941403873     
  -10.5154711405574     
  -10.4845481407275     
  -10.4536251408975     
  -10.4227021410676     
  -10.3917791412376     
  -10.3608561414077     
  -10.3299331415777     
  -10.2990101417478     
  -10.2680871419179     
  -10.2371641420879     
  -10.2062411422580     
  -10.1753181424280     
  -10.1443951425981     
  -10.1134721427682     
  -10.0825491429382     
  -10.0516261431083     
  -10.0207031432783     
  -9.98978014344841     
 -0.220103222624580     
 -0.222977806781548     
 -0.210877246465383     
 -0.213860933591717     
 -0.231604940168537     
 -0.228805993204227     
 -0.216364053039190     
 -0.219882411685986     
 -0.203939797157707     
 -0.200825596843889     
 -0.240490317964811     
 -0.237778731326290     
 -0.224974813341614     
 -0.228473729883632     
 -0.207194667981828     
 -0.210821592499186     
 -0.247108116687180     
 -0.249623041779323     
 -0.193677184855088     
 -0.190438704559302     
 -0.234229830044581     
 -0.237803588464352     
 -0.276282508467002     
 -0.274684060969976     
 -0.258639835507137     
 -0.256565793960529     
 -0.213770906092512     
 -0.217922109910808     
 -0.197156437335659     
 -0.200898906660511     
 -0.221188053946943     
 -0.225197082686882     
 -0.282803851706453     
 -0.281929157775665     
 -0.183375551295395     
 -0.180023688313544     
 -0.265753660260004     
 -0.267268144184814     
 -0.284361653282022     
 -0.281351778410772     
 -0.248206513717692     
 -0.244606092191397     
 -0.289317388231825     
 -0.204106329963799     
 -0.208387629882500     
 -0.275981682630003     
 -0.272821992521999     
 -0.173198439917011     
 -0.169731140992666     
 -0.291966553785669     
 -0.186811806331795     
 -0.190652581313051     
 -0.229074022185487     
 -0.233331995228590     
 -0.290452449563271     
 -0.221668675413980     
 -0.226329008824089     
 -0.162991209271426     
 -0.159395100753664     
 -0.258905053039444     
 -0.255574768011994     
 -0.290248676981533     
 -0.212003188035297     
 -0.216860915195968     
 -0.293725725943921     
 -0.193505545048431     
 -0.197881917486938     
 -0.152469435019818     
 -0.148744239277611     
 -0.176803990582583     
 -0.180730147245379     
 -0.285291474752603     
 -0.268792898464943     
 -0.266592229146693     
 -0.240046846678030     
 -0.244664639635408     
 -0.299316123102691     
 -0.277857726664410     
 -0.141620319581069     
 -0.137785047881578     
 -0.300394518082703     
 -0.302116402052623     
 -0.277260569893243     
 -0.200919220324944     
 -0.205892426918503     
 -0.167250929895001     
 -0.171312425894925     
 -0.126695893399203     
 -0.130617333969069     
 -0.221631951391583     
 -0.227135310203123     
 -0.182901038509635     
 -0.187325946258074     
 -0.294355158872102     
 -0.232215954452958     
 -0.237461767150410     
 -0.119613158918862     
 -0.115629345951606     
 -0.252796563714069     
 -0.257694601872271     
 -0.161412017986047     
 -0.157162666535415     
 -0.301194157840391     
 -0.290068644131226     
 -0.304088569908004     
 -0.108704407340467     
 -0.104674482127477     
 -0.209803126767196     
 -0.215438219053829     
 -0.194094624648218     
 -0.189069287376230     
 -0.150476057177161     
 -0.146064846952076     
 -0.304501066399412     
 -0.174078172333564     
 -0.178497849319615     
 -9.783760378772499E-002
 -9.377259701511573E-002
 -0.285927550182177     
 -0.310965195848330     
 -0.265670035826468     
 -0.270403142896000     
 -0.309768894547274     
 -0.309980904542888     
 -0.302564611218105     
 -0.139089576221111     
 -0.134561612733740     
 -0.278012581613044     
 -8.718262692395623E-002
 -8.310346731091611E-002
 -0.313617935850768     
 -0.315986055627123     
 -0.171035182484098     
 -0.166320556579415     
 -7.679524013751532E-002
 -7.268151460855574E-002
 -0.202639516642797     
 -0.196928856668319     
 -0.313686783746881     
 -0.127566919785240     
 -0.122961355290878     
 -0.280194540093054     
 -0.247222129930089     
 -0.253417079285436     
 -0.220452154477044     
 -0.226834753271812     
 -0.177089346394478     
 -0.182069741385994     
 -0.292410859025468     
 -6.573243519196750E-002
 -6.156239238382111E-002
 -0.233501088355700     
 -0.239817351510890     
 -0.111605540249527     
 -0.116240616232892     
 -0.160187083330525     
 -0.155200777840686     
 -0.290341112672453     
 -4.871188501948080E-002
 -5.291614234297125E-002
 -0.316283419486455     
 -0.316864968777047     
 -0.105254918131444     
 -0.100591127476034     
 -0.322622027003873     
 -0.206754134047467     
 -0.213205401842057     
 -0.148087944443548     
 -0.142952509279840     
 -3.450296884719523E-002
 -3.872748623135146E-002
 -0.303064883523918     
 -0.188718977971910     
 -0.182999501329380     
 -0.323457624946273     
 -0.263510275311556     
 -0.270482530523640     
 -9.387930220705949E-002
 -8.920220855149653E-002
 -0.303579445745226     
 -1.976986628547897E-002
 -2.401307526037931E-002
 -0.326856408781043     
 -0.130946889489946     
 -0.136191163526430     
 -8.386131168719205E-002
 -7.927705642222986E-002
 -0.328380771022087     
 -0.277373489394756     
 -0.329703018331871     
 -0.167124944766500     
 -0.172721071347453     
 -0.286236875315178     
 -4.719806510725589E-003
 -8.992230855609590E-003
 -7.455967043181669E-002
 -6.983169210372486E-002
 -0.118384213149671     
 -0.123683880321864     
 -0.191927029334540     
 -0.198438782636335     
  1.049589177176423E-002
  6.167018386275471E-003
 -0.316729489403284     
 -0.239813643898495     
 -0.232568132938091     
 -0.218295768464715     
 -0.225530165021054     
 -6.198281721807874E-002
 -5.720473695562350E-002
 -0.246741442445001     
 -0.254161834329759     
 -0.317870667125233     
  2.130366049253157E-002
  2.574584930096612E-002
  0.324371294181606     
  0.320583990483400     
 -0.112665850040229     
 -0.107465684585695     
  0.339009733832068     
  0.335322470008285     
  0.309830850730737     
  0.305898208529926     
  4.094323285633113E-002
  3.631358333727015E-002
  0.726676997346419     
  0.726287524877971     
 -0.157393336467997     
 -0.151585717191394     
 -0.290233144777329     
 -4.839596542788407E-002
 -4.361560284984659E-002
  0.353774060366707     
  0.350162445380139     
  0.295283704459642     
  0.291161987867585     
 -0.331354506526897     
  5.604771500343570E-002
  5.121119823440794E-002
  0.365078682941836     
  0.368618965944110     
 -0.330915227819970     
  0.280652150652367     
  0.276335410533831     
  0.380036778593546     
  0.383499234074107     
  6.610377622480761E-002
  7.106465672820846E-002
  0.712005881724748     
  0.711380097783180     
  0.265933602245541     
  0.261468968612074     
  0.395022306108494     
  0.398397612424541     
  0.696834850576756     
  0.695992942782935     
  0.251153895089339     
  0.246608180349599     
  8.602863777927286E-002
  8.106473345428099E-002
  0.410035602354245     
  0.413315689052756     
  0.236328281666939     
  0.231741736301217     
  0.681662819233163     
  0.680623326439086     
  0.100982142115853     
  9.609055980683906E-002
  0.425081178643106     
  0.428260333826839     
  0.221456776441263     
  0.216834722137597     
  0.666580778124506     
  0.665359461816089     
  0.115964395282098     
  0.111156425944116     
  0.206526532964560     
  0.201863126788158     
  0.440151022533978     
  0.443224566361347     
  0.131006838728419     
  0.126252001584872     
  0.651569165420473     
  0.650178765746317     
  0.191520352086078     
  0.186816198903121     
  0.146120384314490     
  0.141379597901810     
  0.176430881249229     
  0.171697666927160     
  0.455201161446729     
  0.458164936095440     
  0.161280071247364     
  0.156537193303280     
  0.636582711352921     
  0.635033378209387     
  0.470167582406196     
  0.473019548182876     
  0.621588415146806     
  0.619889415417306     
 -0.102257615011691     
 -9.691587731278135E-002
 -0.337492947792643     
  0.487773928884335     
  0.485031813039480     
 -0.269526720881540     
 -0.261535880547335     
  0.606590235494750     
  0.604750875650289     
  0.499836190293154     
  0.502472390513773     
  0.589645977247249     
  0.591617067949363     
  0.514638591567139     
  0.517171619419876     
  0.574565610709470     
  0.576662673664890     
  0.529490397562987     
  0.531921423611786     
  0.559482985954357     
  0.561699313126074     
  0.546764255642889     
  0.544437353747297     
 -3.405198775275168E-002
 -2.927615232759066E-002
 -0.335845080803005     
 -0.331570392288543     
 -0.301414644301743     
 -0.139388554554485     
 -0.145209396402823     
 -0.182316752590662     
 -0.175792554900859     
 -0.202985269073802     
 -0.210294296713801     
 -0.333273720542290     
 -0.340734224736327     
 -8.694748697226166E-002
 -8.165889752796837E-002
 -1.899597621830993E-002
 -1.420626127967964E-002
 -0.343037474701149     
 -0.303939634042131     
  0.741513475240357     
  0.741354940183943     
 -0.344475471620922     
 -0.344214085647613     
 -0.127492938897891     
 -0.133544127486719     
  1.355528804045266E-003
 -0.276273004147055     
 -3.484920499686714E-003
 -0.346061868509568     
  0.739874872942503     
 -0.285492219355852     
 -0.167311430767834     
 -0.160860280594934     
 -0.347557665357273     
 -7.212222894766530E-002
 -6.674217858961062E-002
  1.707826689217269E-002
  1.211235277780282E-002
 -0.316262378104142     
 -0.115945272176985     
 -0.109920084598461     
  0.740379943929408     
 -0.238997527245651     
 -0.230965439343464     
 -5.826758394759302E-002
 -5.292541504894387E-002
 -0.318530300490437     
 -0.193415074346341     
 -0.186005795182747     
  2.747103708152288E-002
  0.313634631873654     
  0.318418751864857     
  0.328067566517078     
  0.332695549301441     
  3.274344174174345E-002
  0.304272154779083     
  0.299204778324105     
  0.347313842997357     
  0.342762028271186     
  4.243663459789396E-002
  4.821806464508840E-002
 -0.215885699518891     
 -0.223972766429808     
 -0.245266237326332     
 -0.253464504309160     
  0.289945218839247     
  0.284503734129859     
  0.362170789734094     
  0.357672630180900     
  6.347297385285666E-002
  5.724849168814361E-002
  0.756685891574628     
  0.269618136662942     
  0.275386229248069     
  0.372679909036922     
  0.377114784607299     
 -0.348920225830916     
  0.757376348267630     
  0.724332820533907     
  0.723487890600648     
  7.857389885640327E-002
  7.222230764014302E-002
  0.254759076835926     
  0.260684411700609     
  0.387737555672045     
  0.392089540754389     
  0.708438552854836     
  0.707271508543208     
  0.245892597606286     
  0.239949663606143     
  0.407090697966582     
  0.402838660630589     
 -4.453675112444883E-002
 -3.925166638740420E-002
  8.737987144692504E-002
  9.361472506059411E-002
  0.691240776454123     
  0.692695403950234     
  0.225087222767197     
  0.231023357392710     
  0.422141496816024     
  0.418000763925179     
  0.102628379299743     
  0.108680581892352     
  0.675505623531909     
  0.677214423649402     
  0.210100085805604     
  0.216060082634993     
  0.117928419730178     
  0.123849460685854     
  0.433242960898763     
  0.437265258790401     
 -0.289661301765244     
  0.661947594125947     
  0.660010724847457     
  0.194963368011301     
  0.200962840844003     
  0.139182155428549     
  0.133279685215685     
 -0.150850935044917     
 -0.144004797090389     
  0.179656383857369     
  0.185685712289197     
  0.154675915584337     
  0.148708612607785     
  0.448537361479061     
  0.452434592129807     
  0.164202233537841     
  0.170226635920803     
  0.646779224293714     
  0.644633241012196     
  0.467483239675515     
  0.463718914278302     
  0.629265608827650     
  0.631605255754723     
 -0.353032465487326     
  0.482263542877358     
  0.478630359767178     
  0.613856781044924     
  0.616374669027117     
  0.493339651930921     
  0.496853497480853     
  0.601164755103862     
  0.598487520890694     
 -0.260154104724638     
 -0.268838144383229     
  0.507994206669649     
  0.511398481527526     
  0.586072861477525     
  0.583248828879980     
  0.525998983869696     
  0.522698105315721     
  0.567996120147274     
  0.570962914483863     
  0.540754003257360     
  0.537554532820771     
  0.552681348133474     
  0.555774164235214     
  0.756880553647960     
 -0.347444101373929     
 -0.349840209246980     
 -0.300481828813466     
 -2.450264744363720E-002
 -2.975639567182865E-002
 -9.279008627112494E-002
 -9.893038117291623E-002
 -0.331669940250710     
 -0.357231491567038     
 -0.334214641341518     
 -0.173268960471285     
 -0.165785280558615     
 -0.198911618710566     
 -0.207152128587536     
 -0.355700288349481     
 -8.523280588178675E-003
 -1.379503171551915E-002
  0.754795289865131     
  0.755258307332273     
 -0.303513288001004     
 -0.361275004015839     
 -7.704170597099864E-002
 -8.313151042537879E-002
 -0.359462809343473     
  7.809817284797263E-003
 -0.284646611157712     
 -0.122393011371503     
 -0.129425454038041     
  2.474445627540795E-003
 -0.362358466373646     
 -0.359565549607276     
 -0.275102727385482     
  0.736959814368019     
 -0.364826582296187     
 -6.199303713606408E-002
 -6.796032974755864E-002
 -0.230586943912066     
 -0.239403367214110     
  1.862329489269710E-002
  2.412700153899167E-002
 -0.315439139577601     
 -0.348070386188473     
  0.737894446324613     
 -0.351220927685723     
  0.320874153452503     
  0.326387972023725     
  0.307139548690008     
  0.312926128493908     
  3.391923625025439E-002
  0.773024820813551     
  4.016824006236314E-002
  0.335183027735983     
  0.340629778655401     
  0.299212916570309     
  0.292855084912399     
  0.355549633575718     
  0.350115024020328     
  0.773006491350187     
  4.834170764996495E-002
  5.576767389186638E-002
 -5.473858890418520E-002
 -4.897646352372857E-002
  0.284862090157448     
  0.277814917543329     
  0.370590755260144     
  0.365185196504724     
  0.774088074326939     
 -0.318109831535298     
  7.101776078621078E-002
  6.306400901168441E-002
 -0.364150695252825     
  0.262797415864027     
  0.270249099492778     
  0.380314647940569     
  0.385650446888364     
  0.720802027640370     
  0.719416731961651     
  0.248082994180494     
  0.255509951948156     
  7.836481479171997E-002
  8.611414084841887E-002
  0.395480054296520     
  0.400712568324735     
 -0.188980611667725     
 -0.180543602996742     
  0.704105849608323     
  0.702324205161976     
  0.240679945491244     
  0.233388659568335     
 -0.111186191462278     
 -0.104144446028568     
  0.101195876482499     
  9.380507289312243E-002
  0.774100535274135     
  0.415815209304399     
  0.410705944571574     
  0.685899614882954     
  0.688017141034883     
 -0.251732183780829     
 -0.242997342847598     
  0.218474305798874     
  0.225747677681816     
  0.116382204354408     
  0.109311303133790     
  0.431032273397754     
  0.426055236357824     
  0.203338102294184     
  0.210663939321783     
  0.672446676672779     
  0.670037618105214     
  0.124850665281479     
  0.131803936739128     
  0.187958625466229     
  0.195331740690463     
  0.147579365283436     
  0.140473892072494     
  0.179639582670905     
  0.172243426508453     
  0.441592511001322     
  0.446432657612059     
  0.163628971767980     
  0.156303245151050     
  0.657127469535466     
  0.654455725110912     
 -0.367667678735637     
 -0.213402131138999     
 -0.222401565666271     
  0.457284215427800     
  0.461975768963502     
  0.638934470264442     
  0.641848852645171     
  0.472465021077874     
  0.476983750730093     
  0.623301792963312     
  0.626442120610690     
 -0.369280085885410     
  0.487035516483564     
  0.491412782813647     
 -0.364538716444685     
  0.610825134551027     
  0.607480870922969     
 -3.646527350098196E-002
 -4.215198858139299E-002
  0.501489762033855     
  0.505746686449265     
  0.595463997335978     
  0.591960251699023     
  0.515944609682776     
  0.520093853508154     
  0.576843358712142     
  0.580513794891241     
  0.534599831528932     
  0.530550638270486     
  0.561151629999341     
  0.564998737534737     
  0.549408688899347     
  0.545455943809966     
 -0.288664805826965     
 -0.158530183404757     
 -0.150500868610741     
  0.771090127785268     
 -0.257960122379593     
 -0.267159268771528     
 -8.723264822206885E-002
 -9.420452124719587E-002
 -0.299431575960790     
 -1.955977075242483E-002
 -2.515593878297797E-002
 -0.365812398071760     
  0.751784003414518     
 -0.142139228408882     
 -0.134079017295494     
 -0.374226622280669     
 -0.330914604968658     
 -0.334049467746483     
 -0.371850846208016     
  0.770886595040516     
 -0.369663762117471     
 -2.309526719431958E-003
 -8.005804643596593E-003
 -7.204900750160619E-002
 -0.376130444838063     
 -7.873637519371390E-002
  0.752637847608113     
 -0.171452920961109     
 -0.162749496866066     
 -0.203798084802671     
 -0.194515498605612     
 -0.378993456877132     
 -0.301921715040984     
 -0.373287739971991     
 -0.274093594990431     
 -0.283958688067468     
 -0.380048668677730     
 -0.239678589417790     
 -0.230042343504845     
  1.486152630288520E-002
  9.241135056889876E-003
  0.789815099346855     
 -0.114815017139209     
 -0.122926013556638     
 -0.383047596355553     
  0.732772424629126     
 -0.383315015551021     
 -0.351626191578164     
  2.636588773682487E-002
  3.184261598249883E-002
  0.314253698076331     
  0.320468545592368     
  0.326905901409508     
  0.333138357838652     
 -5.447591147049233E-002
  0.301960006782557     
  0.308763052937954     
  4.012337438257871E-002
  0.790281396637730     
 -0.313630092152523     
 -0.347673801776202     
 -6.089581659654462E-002
  0.734243108970458     
  4.807080721447611E-002
  0.342306257718739     
  0.348625561732646     
  0.286456480425204     
  0.294492535824598     
  0.791432580634253     
  5.310782565190106E-002
  0.363883385113755     
  0.357508021836423     
  6.343979558390513E-002
  0.279887170159378     
  0.270611534653234     
  0.372744783031616     
  0.379081122358695     
  6.895204288282487E-002
  7.854303018217229E-002
  0.255852822874824     
  0.265180378225010     
 -0.380381312689195     
 -0.386856750893142     
  0.387984256849865     
  0.394212781294689     
  0.716021754353832     
  0.714004458438040     
  0.241705484878804     
  0.250398638038589     
  0.791751674590972     
  8.462272847418989E-002
  9.356818370375568E-002
  0.403225611012543     
  0.409312924049333     
  0.235537000146882     
  0.226983843256357     
  0.792138380303497     
  0.698823696091972     
  0.696378707123489     
  0.108668459901569     
  0.100386327421701     
 -9.786972528256824E-002
  0.211892422676768     
  0.220549368428777     
 -0.105750862747581     
  0.424499039719919     
  0.418566818302022     
  0.123972761168014     
  0.116137809735017     
  0.682926984444381     
  0.680128338510431     
  0.196575412739790     
  0.205350686351368     
 -0.154927307710336     
 -0.145889860745301     
  0.131850497139325     
  0.139761213964110     
  0.180898944786346     
  0.189690608918360     
  0.147737805313712     
  0.156353401444985     
  0.439941465402706     
  0.434160609606119     
  0.164352618484016     
  0.173255343566355     
 -0.316173607182094     
  0.667511463158435     
  0.664399187613014     
  0.767971257019501     
  0.450221141401832     
  0.455853028853517     
  0.652256693543392     
  0.648853089287862     
  0.467124653134798     
  0.472579827357877     
  0.633196561491852     
  0.636875238488995     
  0.480958837006169     
  0.486105229162369     
 -0.220346928484830     
 -0.210296901238695     
  0.617145133628991     
  0.621089864994240     
 -0.259573841330116     
 -0.250029511219680     
  0.500444895059046     
  0.495297493597003     
  0.604361675762472     
  0.600176748647018     
  0.509299470670413     
  0.514198352195339     
  0.589778272091650     
  0.585545461839784     
  0.523611080168672     
  0.528541807250357     
  0.575730060006264     
  0.571163702479870     
  0.542721596526160     
  0.538019052617168     
  0.557522314390817     
  0.552763722017407     
 -0.184753067256671     
 -0.175204859549063     
 -0.386240199508512     
 -3.232198198990489E-002
 -3.797900176126038E-002
  0.787656267598958     
 -0.287448994443887     
 -0.385040559833305     
  0.768541130220272     
 -7.970421272289586E-002
 -8.758023323920830E-002
 -0.370789180261828     
  0.787953301593648     
 -0.366083409250320     
 -0.328718619785109     
 -0.298251597693930     
 -1.355061117011222E-002
 -0.391950361195249     
 -1.940815871402107E-002
  0.747768349693896     
 -0.136179414974026     
 -0.126925343508836     
 -0.390090627224239     
 -0.388141725983828     
 -0.332696065386239     
 -0.389560890898573     
 -0.394404680221556     
 -1.557672621365237E-003
  4.785992979759860E-003
 -0.398012820301210     
  0.749147974852742     
  0.806894926737316     
 -0.399292731712417     
 -0.239879027694116     
 -0.229343020272154     
 -0.297366507405356     
 -0.168220339577828     
 -0.158528876657883     
 -0.199097013285124     
 -0.188594896247913     
 -0.403047844305406     
 -0.103592416307857     
 -0.112900817360041     
 -0.274990144800660     
 -0.285291836240526     
  2.260040895182024E-002
 -0.391474682829465     
  1.737699836938990E-002
  0.785275965011547     
 -0.403215099555195     
  0.727102357188443     
  0.808270785024207     
  3.874113271987113E-002
  4.093213120693193E-002
  0.809207508258324     
  0.314329028210405     
  0.321083349679884     
  0.334408261187703     
  0.341561202153665     
  0.296656389402745     
  0.304357227111649     
 -0.351085347309643     
  5.600116549811997E-002
  0.349628488388538     
  0.356896076822609     
  0.729240807227653     
  0.278774248263389     
  0.289855385469544     
 -0.386067428691877     
 -0.346114485567048     
  7.099016276250074E-002
  0.372445873931235     
  0.364975045119464     
  0.274684554633593     
  0.261909866809222     
  5.925741656885630E-002
  0.810288337698885     
  7.513104333302656E-002
  8.590659381285431E-002
  0.249948502081053     
  0.260368122800491     
 -0.308813083782131     
  0.380406011022568     
  0.387580624866025     
  0.810755570431172     
  0.235912392968686     
  0.245140698417757     
  0.100786790728445     
  9.093668834415235E-002
  0.395639940943487     
  0.402810478697118     
  0.709133683276065     
  0.706380524382749     
 -0.407434995963694     
  0.230731382439773     
  0.220460064968814     
  0.811153933705607     
  0.785410284830348     
 -4.360794875636866E-002
  0.115939272643828     
  0.107348865060234     
  0.417697682390274     
  0.410886748587159     
  0.692893699736540     
  0.689827121875921     
  0.205443937194133     
  0.215284568664549     
  0.122930055133847     
  0.131145003294007     
 -0.398767527155562     
 -0.256404047009327     
 -0.246384446063676     
  0.189830231041838     
  0.200588543294003     
 -4.945089993508090E-002
  0.138832181305058     
  0.147606163502405     
  0.183960853780145     
  0.174330220738985     
  0.433066972758628     
  0.426283290909508     
  0.154484414672438     
  0.166213883119019     
  0.677971519767203     
  0.674468485307869     
  0.448641377463397     
  0.442170192487624     
  0.662393381847994     
  0.658645473081641     
  0.458929763773034     
  0.465429266432651     
  0.647795968722851     
  0.643638029942390     
 -6.105924031849869E-002
  0.482834295817289     
  0.489020178756009     
  0.627419145993285     
  0.631794525470745     
  0.616188637682923     
  0.611373723209558     
  0.510127590406398     
  0.516082451144914     
  0.592750769782810     
  0.587602038830370     
 -6.872233028097682E-002
 -0.153010542487552     
 -0.142555262508179     
  0.543452111064135     
  0.537697933208860     
  0.568720590312829     
  0.563084986258259     
  0.804577242407738     
  0.764628191588613     
 -0.312643332765830     
  0.805497296383495     
 -0.410889389740588     
 -0.405713872333619     
 -0.402391815238337     
 -2.658895568856164E-002
 -3.094595963385425E-002
 -0.176911554594559     