 TITLE="euler solver on unstructured grid" 
 VARIABLES= "X" "Y"  "P" "Rou" "U"  "V"  "nuT"
 ZONE NODES=        5306  ELEMENTS=       10382  ZONETYPE=FETRIANGLE
 DATAPACKING=BLOCK
 VARLOCATION=([3-7]=CELLCENTERED)
 -0.272877978036470     
 -0.265339405218357     
 -0.257521009415059     
 -0.249655946551946     
 -0.241766339386392     
 -0.233860797856404     
 -0.225943746513458     
 -0.218017816171942     
 -0.207438604173746     
 -0.196850316905285     
 -0.186252778893209     
 -0.175648245306503     
 -0.165038702253590     
 -0.154422868123252     
 -0.143802310485258     
 -0.133178537118141     
 -0.122549907663267     
 -0.111917750525459     
 -0.101283364213926     
 -9.064495889194037E-002
 -8.000374338185605E-002
 -6.936092650602532E-002
 -5.871462874086818E-002
 -4.388268513258058E-002
 -2.904658603338052E-002
 -1.420666029506678E-002
  6.378225748240173E-004
  1.548465420091317E-002
  3.033456507566408E-002
  4.518740572098640E-002
  6.004299676317164E-002
  7.490115882851137E-002
  8.976177233453321E-002
  0.104625657460555     
  0.119490725413670     
  0.134357856164432     
  0.149226930130370     
  0.164097887520246     
  0.178970578855970     
  0.193844944346307     
  0.208721893857427     
  0.223599398387662     
  0.238478337907564     
  0.253358652625898     
  0.268240312647044     
  0.283123258179769     
  0.298007399537216     
  0.312893736272412     
  0.327780209488069     
  0.342667758945977     
  0.357556384646136     
  0.372446026797309     
  0.387336655503878     
  0.402228270765845     
  0.417121842240615     
  0.432015340926520     
  0.446909766376585     
  0.461805088695193     
  0.476701277986724     
  0.491598364146798     
  0.506496347175414     
  0.521396196729981     
  0.536295913704445     
  0.551196527547452     
  0.566098008363383     
  0.581000415943474     
  0.595903690496490     
  0.610807921709284     
  0.625714079239264     
  0.640620163980379     
  0.655527265172508     
  0.670435352920033     
  0.685344457118573     
  0.700254637559364     
  0.715165894242406     
  0.726675048080650     
  0.715336418847908     
  0.700546956912905     
  0.685756418735652     
  0.670964804316148     
  0.656172173445630     
  0.641378556019715     
  0.626583922142786     
  0.611787361948670     
  0.596990874543419     
  0.582193430478391     
  0.567395119440438     
  0.552595881638325     
  0.537795776863288     
  0.522994775219708     
  0.508191907050178     
  0.493389171460750     
  0.478585539002780     
  0.463781009676268     
  0.448975613376831     
  0.434169320208852     
  0.419362100276713     
  0.404552954027387     
  0.389743850671309     
  0.374933760759835     
  0.360122684292964     
  0.345310591375078     
  0.330497422214942     
  0.315683176812555     
  0.300866795823655     
  0.286050218563058     
  0.271232445477738     
  0.256413386880841     
  0.241592982981131     
  0.226771203882989     
  0.211947989795179     
  0.197122221582203     
  0.182295868454496     
  0.167467841172176     
  0.152638079944008     
  0.137806435291901     
  0.122972847424620     
  0.108137196759691     
  9.329836416161598E-002
  7.845825904959386E-002
  6.361570249688948E-002
  4.877057492103062E-002
  3.392269694830883E-002
  1.907188920501566E-002
  4.218002213060711E-003
 -1.064023264114477E-002
 -2.550102552087513E-002
 -4.036564503971911E-002
 -5.523442004947560E-002
 -6.591258654350110E-002
 -7.659223482080073E-002
 -8.727548356989905E-002
 -9.796154250709645E-002
 -0.108649621348693     
 -0.119341928470068     
 -0.130037763274377     
 -0.140736455060390     
 -0.151440361681579     
 -0.162148991810423     
 -0.172861913910640     
 -0.183581844583117     
 -0.194308770830224     
 -0.205042948714893     
 -0.215788200975880     
 -0.223855119052238     
 -0.231930916127165     
 -0.240018223015052     
 -0.248121464267372     
 -0.256249249822132     
 -0.264423702436708     
  -10.5673644199616     
  -9.56781139384447     
  -8.56825836772735     
  -7.56870534161023     
  -6.56915231549311     
  -5.56959928937599     
  -4.57004626325887     
  -3.57049323714175     
  -2.57094021102463     
  -1.57138718490751     
 -0.571834158790394     
  0.427718867326725     
   1.42727189344384     
   2.42682491956096     
   3.42637794567808     
   4.42593097179520     
   5.42548399791232     
   6.42503702402944     
   7.42459005014656     
   8.42414307626368     
   9.42369610238080     
   9.45359172045619     
   9.48348733853158     
   9.51338295660697     
   9.54327857468237     
   9.57317419275776     
   9.60306981083315     
   9.63296542890854     
   9.66286104698394     
   9.69275666505933     
   9.72265228313472     
   9.75254790121011     
   9.78244351928551     
   9.81233913736090     
   9.84223475543629     
   9.87213037351168     
   9.90202599158708     
   9.93192160966247     
   9.96181722773786     
   9.99171284581325     
   10.0216084638886     
   9.02205543777153     
   8.02250241165441     
   7.02294938553729     
   6.02339635942017     
   5.02384333330305     
   4.02429030718593     
   3.02473728106881     
   2.02518425495169     
   1.02563122883457     
  2.607820271745442E-002
 -0.973474823399665     
  -1.97302784951678     
  -2.97258087563390     
  -3.97213390175102     
  -4.97168692786814     
  -5.97123995398526     
  -6.97079298010238     
  -7.97034600621950     
  -8.96989903233662     
  -9.96945205845374     
  -9.99934767652913     
  -10.0292432946045     
  -10.0591389126799     
  -10.0890345307553     
  -10.1189301488307     
  -10.1488257669061     
  -10.1787213849815     
  -10.2086170030569     
  -10.2385126211323     
  -10.2684082392077     
  -10.2983038572831     
  -10.3281994753584     
  -10.3580950934338     
  -10.3879907115092     
  -10.4178863295846     
  -10.4477819476600     
  -10.4776775657354     
  -10.5075731838108     
  -10.5374688018862     
 -0.222784409606892     
 -0.220309843032300     
 -0.213707335380442     
 -0.211042758386470     
 -0.229073950382688     
 -0.231352329462419     
 -0.219573073581269     
 -0.216684503079630     
 -0.200962633407768     
 -0.203813739547107     
 -0.238115638682105     
 -0.240172538967329     
 -0.228065796897512     
 -0.225396147800294     
 -0.210573787851678     
 -0.207452083941704     
 -0.249296883070390     
 -0.247458615542511     
 -0.190554073764955     
 -0.193572118454346     
 -0.237236089401867     
 -0.234815307601115     
 -0.275651855300383     
 -0.275381128421745     
 -0.256754828804843     
 -0.258475894908283     
 -0.217508836046973     
 -0.214192254487187     
 -0.200702211302603     
 -0.197361858276246     
 -0.224713712216201     
 -0.221681825552658     
 -0.282572938488452     
 -0.282296651510499     
 -0.180123673177558     
 -0.183285343037164     
 -0.267302403109254     
 -0.265724215927673     
 -0.283542116016284     
 -0.282342150032931     
 -0.245372480373810     
 -0.247468132203257     
 -0.289417823095082     
 -0.208059417155097     
 -0.204441116711139     
 -0.274795013492852     
 -0.274001149003688     
 -0.169822159429688     
 -0.173116661364521     
 -0.291556667453473     
 -0.190496205231503     
 -0.186976476956879     
 -0.232643291423923     
 -0.229775306740837     
 -0.291092541688584     
 -0.225679816721649     
 -0.222324742886455     
 -0.159482138451987     
 -0.162912769041134     
 -0.256339580787058     
 -0.258184293605256     
 -0.291587372978625     
 -0.216338615132512     
 -0.212529082991546     
 -0.292683644628537     
 -0.197629836295802     
 -0.193763728770849     
 -0.148829321718053     
 -0.152392221048255     
 -0.180601121886521     
 -0.176941052156004     
 -0.283877947759808     
 -0.266598740969074     
 -0.268833435275315     
 -0.243614543234943     
 -0.241117020981641     
 -0.299452808932944     
 -0.279576978649431     
 -0.137867235223160     
 -0.141545203175230     
 -0.301301639317918     
 -0.301515348739092     
 -0.275474746198130     
 -0.205498600919823     
 -0.201315769146856     
 -0.171195657446142     
 -0.167375256872960     
 -0.130546250117668     
 -0.126773180957767     
 -0.226312550967825     
 -0.222454050188261     
 -0.187131706101141     
 -0.183101510135040     
 -0.292658003408929     
 -0.236418064577535     
 -0.233266796787451     
 -0.115698755760888     
 -0.119549031520296     
 -0.256196346852991     
 -0.254338479737279     
 -0.157282562344860     
 -0.161298927911246     
 -0.302839836301013     
 -0.292196863939956     
 -0.302781809557715     
 -0.104732006084245     
 -0.108651238810576     
 -0.214834036084362     
 -0.210404678972537     
 -0.189364156212203     
 -0.193803016349367     
 -0.146178950957221     
 -0.150367917830903     
 -0.302426070279706     
 -0.178339600256019     
 -0.174242903714118     
 -9.381316606434879E-002
 -9.780052088764614E-002
 -0.283982905645319     
 -0.311461318708555     
 -0.268720235235305     
 -0.267450968284463     
 -0.309594371090364     
 -0.311165565553524     
 -0.305023593778246     
 -0.134666551897112     
 -0.138989624399352     
 -0.280618387283955     
 -8.312379703716362E-002
 -8.716513475842624E-002
 -0.312811343583355     
 -0.314372248653784     
 -0.166485983391354     
 -0.170875299800980     
 -7.267328920134811E-002
 -7.680584090932027E-002
 -0.197361860087723     
 -0.202204958955075     
 -0.315540442276413     
 -0.123052062476129     
 -0.127480038955086     
 -0.277768183295470     
 -0.251577938180756     
 -0.249073307950123     
 -0.225923116320982     
 -0.221352197990843     
 -0.181852332040055     
 -0.177311053709273     
 -0.290016212417265     
 -6.151007184353242E-002
 -6.578710645273846E-002
 -0.238513276473738     
 -0.234797358075544     
 -0.116173503664934     
 -0.111675319806427     
 -0.155359550844005     
 -0.160032948539589     
 -0.293338452870019     
 -5.302516412406228E-002
 -4.860633930336358E-002
 -0.319038748743090     
 -0.314371987451033     
 -0.100630605513438     
 -0.105216902142608     
 -0.322525395715331     
 -0.212571789234273     
 -0.207378339632742     
 -0.143096331605472     
 -0.147947913805766     
 -3.889210787053989E-002
 -3.434459049866324E-002
 -0.300126964631871     
 -0.183315658577003     
 -0.188403381792874     
 -0.324476457057248     
 -0.267454667948423     
 -0.266599666696574     
 -8.919754251345154E-002
 -9.388437782549955E-002
 -0.306948223719568     
 -2.422273357423911E-002
 -1.957104065218264E-002
 -0.325812346856532     
 -0.136068253025309     
 -0.131072327251309     
 -7.923719978158120E-002
 -8.390151379875700E-002
 -0.330434979405326     
 -0.280867253183977     
 -0.327750084564377     
 -0.172492652042141     
 -0.167355902522085     
 -0.282958059463042     
 -9.221272404401973E-003
 -4.507718437531005E-003
 -6.971468109850468E-002
 -7.467639200748635E-002
 -0.123589887268670     
 -0.118479073688768     
 -0.197989165653537     
 -0.192371392293482     
  5.963293755744632E-003
  1.067559069007736E-002
 -0.313278820410769     
 -0.233868925050396     
 -0.238485183911493     
 -0.224636790430915     
 -0.219166688485757     
 -5.697755206435568E-002
 -6.221102279752103E-002
 -0.252167094736188     
 -0.248709904791232     
 -0.321602674747870     
  2.582001057221988E-002
  2.119868140690843E-002
  0.320738697338175     
  0.324249193575928     
 -0.107523020686740     
 -0.112608409586494     
  0.335439040779530     
  0.338923002299977     
  0.306131353791009     
  0.309633740292612     
  3.639505620760945E-002
  4.082823153882922E-002
  0.725806068970531     
  0.727110294205281     
 -0.151785431752541     
 -0.157195845874066     
 -0.294155656960329     
 -4.327046081223616E-002
 -4.874656354492347E-002
  0.350267148284935     
  0.353697829570188     
  0.291510045355573     
  0.294973867862049     
 -0.334412464857066     
  5.150785641921973E-002
  5.572308278503546E-002
  0.368544402519909     
  0.365181700360907     
 -0.327994163233632     
  0.276801078978583     
  0.280223045984520     
  0.383427963219851     
  0.380137357464125     
  7.061376060509826E-002
  6.653838652899979E-002
  0.710927361302449     
  0.712440977920350     
  0.262005972837746     
  0.265427018312813     
  0.398334936466302     
  0.395115413134848     
  0.695599549402106     
  0.697227158034196     
  0.247152041507076     
  0.250632405352117     
  8.151867902632196E-002
  8.556906115220071E-002
  0.413266176103831     
  0.410116494530638     
  0.232254617012176     
  0.235830482135939     
  0.680293739241898     
  0.682001690034099     
  9.649022783970859E-002
  0.100581958828580     
  0.428225773930685     
  0.425147721094713     
  0.217313488783957     
  0.220986984012690     
  0.665088668951398     
  0.666867818262488     
  0.111492369215199     
  0.115627507962211     
  0.202315913366235     
  0.206077157161991     
  0.443204373142378     
  0.440203456336167     
  0.126557810633786     
  0.130696430127630     
  0.649958821851206     
  0.651810220703970     
  0.187245688511611     
  0.191088984850489     
  0.141700182931821     
  0.145791602191955     
  0.172097930708718     
  0.176024170347273     
  0.458156807719831     
  0.455241568120395     
  0.156898009498012     
  0.160910260501380     
  0.634856944039064     
  0.636783754476957     
  0.473020917683447     
  0.470198438471366     
  0.619750459445042     
  0.621754534733864     
 -9.691613359386045E-002
 -0.102255163648743     
 -0.337819568882870     
  0.485054837105603     
  0.487783107813377     
 -0.264592220050134     
 -0.266457521352071     
  0.604644780473635     
  0.606725379979988     
  0.502488945900092     
  0.499851866448689     
  0.591725233189733     
  0.589568195385208     
  0.517196694316801     
  0.514645794966834     
  0.576747764034543     
  0.574511795159129     
  0.531956938635240     
  0.529487155979805     
  0.561765007776074     
  0.559449122705933     
  0.544420422578756     
  0.546813327476854     
 -2.882192361562896E-002
 -3.452011746190422E-002
 -0.335351796275602     
 -0.327632055485060     
 -0.297487899402754     
 -0.145039385444614     
 -0.139560160852185     
 -0.176125880888937     
 -0.181981956456500     
 -0.209678930769495     
 -0.203586037979688     
 -0.337374764360355     
 -0.342043432842368     
 -8.154704875465631E-002
 -8.705585636219842E-002
 -1.368211842755091E-002
 -1.954628192086362E-002
 -0.341737947393943     
 -0.308279049117602     
  0.740956219520028     
  0.741789677345683     
 -0.346799504593614     
 -0.341871557499322     
 -0.133395239532859     
 -0.127641225739750     
 -4.051308151096385E-003
 -0.280707423960429     
  1.880973023412592E-003
 -0.342718836906768     
  0.741317611948631     
 -0.281073201540940     
 -0.161127759178595     
 -0.167044337466991     
 -0.350930646702080     
 -6.644286465422036E-002
 -7.241754091813446E-002
  1.163445066253863E-002
  1.749851866018609E-002
 -0.311784007732305     
 -0.109987514282098     
 -0.115874250024241     
  0.738786785755711     
 -0.232120582852660     
 -0.237799046080645     
 -5.243459402976033E-002
 -5.875815388512449E-002
 -0.323291560330284     
 -0.186450918502473     
 -0.192962937642939     
  3.285250750453565E-002
  0.318175182476451     
  0.313927652485145     
  0.332551872440655     
  0.328252414718626     
  2.728818258123873E-002
  0.299709381117864     
  0.303826181306528     
  0.342913258783526     
  0.347198448222865     
  4.781098881360615E-002
  4.276913415955934E-002
 -0.223167160179954     
 -0.216661386207550     
 -0.251658874885887     
 -0.247016376818996     
  0.285294301395439     
  0.289217226552650     
  0.357824033221340     
  0.362053221799935     
  5.803826563563187E-002
  6.263187248867309E-002
  0.757674919132704     
  0.274413178802760     
  0.270645518636240     
  0.376995193573247     
  0.372833870385759     
 -0.348566335096823     
  0.757260998902689     
  0.722463745136154     
  0.725264752601304     
  7.315430822204036E-002
  7.761936670645461E-002
  0.259624168539131     
  0.255856451794941     
  0.391980473546923     
  0.387882577036678     
  0.706369194166873     
  0.709285224029192     
  0.240980019080487     
  0.244883292017590     
  0.402962180145623     
  0.407004536176942     
 -3.856100791382990E-002
 -4.523670776817470E-002
  9.277992852399961E-002
  8.820853501742600E-002
  0.693430726268728     
  0.690473947972920     
  0.230091849421829     
  0.226027854691978     
  0.418095033045565     
  0.422085220040396     
  0.108019273314544     
  0.103285743603109     
  0.677840519159911     
  0.674864677284686     
  0.215176406229226     
  0.210982595522304     
  0.123300603619371     
  0.118465247537158     
  0.437239449818188     
  0.433306556229165     
 -0.294553984002453     
  0.659478109222302     
  0.662477266476759     
  0.200110301019660     
  0.195804605849554     
  0.133811729079607     
  0.138626379197430     
 -0.144252877519849     
 -0.150602039930594     
  0.184870086410194     
  0.180450798699870     
  0.149330599596639     
  0.154022940415623     
  0.452435016375350     
  0.448573888139013     
  0.169473140194294     
  0.164926508620552     
  0.644192546188759     
  0.647225788257043     
  0.463734573723308     
  0.467503384282469     
  0.631979922871049     
  0.628903549450602     
 -0.353604219300070     
  0.478630391534454     
  0.482298169716254     
  0.616685616986068     
  0.613563722777784     
  0.496900526636878     
  0.493326300037998     
  0.598255809015075     
  0.601418521427265     
 -0.266088196359127     
 -0.262838330497628     
  0.511458885159466     
  0.507966605314988     
  0.583069306890822     
  0.586277613002952     
  0.522652906276610     
  0.526076089151613     
  0.571127254969151     
  0.567859368301426     
  0.537485883389235     
  0.540853490040225     
  0.555903415877363     
  0.552581516780413     
  0.755656502483547     
 -0.343028547451652     
 -0.354315452733713     
 -0.295497146720198     
 -3.065388542875280E-002
 -2.363182088165886E-002
 -9.899867780006154E-002
 -9.271383907740262E-002
 -0.326656875839196     
 -0.358784864904544     
 -0.339411938945819     
 -0.166142881091384     
 -0.172909458127022     
 -0.206577469639579     
 -0.199470414956575     
 -0.353852734664922     
 -1.479337122981487E-002
 -7.574221682810185E-003
  0.756911695274792     
  0.752899944507230     
 -0.308863243639081     
 -0.363862850316225     
 -8.341850639092119E-002
 -7.674428891482470E-002
 -0.356774530392848     
  1.469638027562854E-003
 -0.279153638996949     
 -0.129243226460140     
 -0.122570244237016     
  8.741251396867884E-003
 -0.358611378591141     
 -0.358503066521552     
 -0.280522868352951     
  0.739470819044767     
 -0.368508392057868     
 -6.856412343809366E-002
 -6.137927010689159E-002
 -0.238385143511808     
 -0.231549922338935     
  2.488711461470716E-002
  1.775825469913644E-002
 -0.309893341500905     
 -0.342515859156540     
  0.735213470395722     
 -0.356862800889555     
  0.326202878577461     
  0.321115821300878     
  0.312530312110536     
  0.307609097684022     
  4.013918465619449E-002
  0.771066056950518     
  3.380507937152648E-002
  0.340500364828012     
  0.335357246147194     
  0.293788067788238     
  0.298373572831223     
  0.350304906035432     
  0.355398738679195     
  0.774630201169814     
  5.456334170411144E-002
  4.942643383862821E-002
 -4.813129788759660E-002
 -5.558154841867795E-002
  0.279329245333185     
  0.283443541632431     
  0.365398754263896     
  0.370416140964102     
  0.773323092280058     
 -0.323947724764457     
  6.469629567857879E-002
  6.933634042969722E-002
 -0.363980584943542     
  0.268496905626218     
  0.264614520927289     
  0.385479638368184     
  0.380527138157901     
  0.717880085224834     
  0.722221627816412     
  0.253845446465507     
  0.249778191083250     
  8.466411161632509E-002
  7.980591993830692E-002
  0.400573052431951     
  0.395663985238863     
 -0.181008189958477     
 -0.188510648066944     
  0.701016417073749     
  0.705334598935620     
  0.234852970040189     
  0.239228039181017     
 -0.104183343456009     
 -0.111136608992641     
  9.489392330556644E-002
  0.100109480926370     
  0.774525951024541     
  0.410842849292009     
  0.415723978228535     
  0.689062535358448     
  0.684802385350022     
 -0.244420887061310     
 -0.250237552010580     
  0.224394978787076     
  0.219825308069962     
  0.110080148288900     
  0.115604500462131     
  0.426139132360593     
  0.430993668860922     
  0.209341351095558     
  0.204644486109933     
  0.669116655357316     
  0.673335463441886     
  0.131124302411984     
  0.125497819709533     
  0.194044618850078     
  0.189213779012592     
  0.141272804951708     
  0.146724030518626     
  0.173427291739987     
  0.178407598589372     
  0.446441179194444     
  0.441627572286529     
  0.157348104801720     
  0.162522568680639     
  0.653681448447623     
  0.657884301434678     
 -0.372513457410929     
 -0.221721996383870     
 -0.214051082357868     
  0.462020706041181     
  0.457280377339232     
  0.642492861095809     
  0.638284455008494     
  0.477051068698052     
  0.472436145624744     
  0.626986801789738     
  0.622760279040447     
 -0.370038723319721     
  0.491497449069476     
  0.486987049143408     
 -0.359649541528751     
  0.607038334815025     
  0.611278406041914     
 -4.338996331775849E-002
 -3.524101494032773E-002
  0.505848424903917     
  0.501422325039223     
  0.591609262234341     
  0.595831896687627     
  0.520216904618460     
  0.515854017748053     
  0.580815430665956     
  0.576563160265408     
  0.530429808045463     
  0.534751209273519     
  0.565245756632725     
  0.560929627736872     
  0.545292515940969     
  0.549600290987428     
 -0.294542892308835     
 -0.150862890111511     
 -0.158166999846382     
  0.767923511612808     
 -0.264939853020332     
 -0.260079903408674     
 -9.439253971248347E-002
 -8.702735023672543E-002
 -0.293399949181768     
 -2.668286060906803E-002
 -1.808241027772211E-002
 -0.359706409058561     
  0.755067503311100     
 -0.134398876946918     
 -0.141815422912004     
 -0.375986231079507     
 -0.324779590217842     
 -0.340405348950285     
 -0.370005792456129     
  0.773726934364184     
 -0.375748023764914     
 -9.549434608123211E-003
 -8.472857543142436E-004
 -7.926701776667305E-002
 -0.373128128214302     
 -7.149905037816223E-002
  0.749109148876576     
 -0.163194658627827     
 -0.171007366039299     
 -0.195053024384677     
 -0.203249903398120     
 -0.381817898067088     
 -0.308300426760839     
 -0.372425897989710     
 -0.280538344111835     
 -0.277387125957557     
 -0.375909616655230     
 -0.230715511986422     
 -0.238949394828221     
  7.567959044662792E-003
  1.642596253996256E-002
  0.787065968738844     
 -0.122693576073486     
 -0.115036260074424     
 -0.377683190379271     
  0.736406581356072     
 -0.387287999448289     
 -0.358507836037887     
  3.348962833117310E-002
  2.454326059157014E-002
  0.320295477852526     
  0.314502963804225     
  0.333079088305460     
  0.327022047748481     
 -6.216499158976425E-002
  0.308228800464040     
  0.302604830067127     
  4.705888284017463E-002
  0.792601228096246     
 -0.307011489501846     
 -0.340916494231339     
 -5.318414931559364E-002
  0.730427879567624     
  4.082178270549585E-002
  0.348479877549470     
  0.342494178298945     
  0.292918907159129     
  0.288193002454348     
  0.789939187839137     
  6.023332087937482E-002
  0.357784475996921     
  0.363648033751964     
  5.622557217621752E-002
  0.273468350754141     
  0.277168666790045     
  0.378823442231738     
  0.373048921024096     
  7.614035540954792E-002
  7.134783512888050E-002
  0.262415928198383     
  0.258652049402301     
 -0.380302172984369     
 -0.392063564743321     
  0.393992099891985     
  0.388257527694065     
  0.712014622811862     
  0.717880509867798     
  0.248354462950438     
  0.243764501367392     
  0.792793775121857     
  9.183751317160387E-002
  8.637868291014410E-002
  0.409163854347158     
  0.403430353744226     
  0.228796140834911     
  0.233725317615468     
  0.791908791898481     
  0.694723015351725     
  0.700386283182211     
  0.101472941864774     
  0.107595626503464     
 -0.105732026369469     
  0.218727671135057     
  0.213698546934115     
 -9.786915990003021E-002
  0.418685196043844     
  0.424436249624324     
  0.116758606122354     
  0.123327512678527     
  0.678731676120404     
  0.684257769320527     
  0.203506781960702     
  0.198382330117814     
 -0.146350490824854     
 -0.154466268318787     
  0.139021022386547     
  0.132517854441900     
  0.187933363043769     
  0.182596085382262     
  0.154894261088454     
  0.149076696438553     
  0.434198454646511     
  0.439956705755683     
  0.171491974393202     
  0.166028649921317     
 -0.323146041383258     
  0.663209116857019     
  0.668656255170332     
  0.772057339635777     
  0.455931996335637     
  0.450191162443513     
  0.647836445831639     
  0.653244404323631     
  0.472701376021849     
  0.467047245161216     
  0.637727393610801     
  0.632328722712353     
  0.486234619300140     
  0.480869182236787     
 -0.210835772950153     
 -0.219788553304700     
  0.621817611331438     
  0.616412963199638     
 -0.251298513557198     
 -0.258201696329121     
  0.495171302559961     
  0.500608093428035     
  0.599578473432175     
  0.604965475409579     
  0.514370325739869     
  0.509161413053677     
  0.585087758912436     
  0.590249763542838     
  0.528762281470653     
  0.523421732292834     
  0.570753139913734     
  0.576158582241167     
  0.537800176017488     
  0.542968680061182     
  0.552453917883327     
  0.557856091884571     
 -0.175736180253766     
 -0.184222292605403     
 -0.387147341359125     
 -4.028957987556050E-002
 -3.003499861459244E-002
  0.783652580395098     
 -0.294216584072593     
 -0.378376154978580     
  0.764138331011455     
 -8.796816999193420E-002
 -7.928065467103210E-002
 -0.378189710231447     
  0.791555216164781     
 -0.358689312477325     
 -0.321411360502822     
 -0.291291735920247     
 -2.171018293681855E-002
 -0.393865200608266     
 -1.135393536568233E-002
  0.752271691905230     
 -0.127368786953746     
 -0.135729377446050     
 -0.388933788328409     
 -0.385843510140566     
 -0.340288336018711     
 -0.396078366218350     
 -0.391110259051910     
  6.566254722452507E-003
 -3.443142521286434E-003
 -0.401029796780991     
  0.744399430212680     
  0.803312803909898     
 -0.394761362632035     
 -0.229649674527022     
 -0.239534857375998     
 -0.304818414630106     
 -0.159075621936563     
 -0.167676836192774     
 -0.189200831705443     
 -0.198494157617661     
 -0.397201016375312     
 -0.112574007123364     
 -0.103896876170191     
 -0.282659895300054     
 -0.277445871828000     
  1.433872643213916E-002
 -0.399381087955216     
  2.552327907404464E-002
  0.790168618564880     
 -0.407464309704641     
  0.731919356596502     
  0.811342148860465     
  4.670848735828047E-002
  3.269344612652229E-002
  0.806913713868266     
  0.321351647788127     
  0.314146455772789     
  0.341533065213701     
  0.334475247291048     
  0.303801901844095     
  0.297385653876677     
 -0.359288633092187     
  4.798402475644963E-002
  0.356601591688692     
  0.349959001289917     
  0.724237438525828     
  0.286398277375786     
  0.282598662264956     
 -0.378034694353740     
 -0.338081797302267     
  6.284871936906708E-002
  0.365421534165103     
  0.372046529613508     
  0.267457414055000     
  0.269242912457425     
  6.740135775703085E-002
  0.812016059291506     
  8.318107675177180E-002
  7.792982975611286E-002
  0.257294517497762     
  0.252877465494699     
 -0.301097206004742     
  0.387235490379225     
  0.380811549871556     
  0.809785240372933     
  0.243522820503256     
  0.237685953286990     
  9.264689947655409E-002
  9.914997531846111E-002
  0.402556947758090     
  0.395963361877128     
  0.704023026490601     
  0.711353845057124     
 -0.412993771574341     
  0.223005113819817     
  0.228023853304722     
  0.811529146027585     
  0.780132758496889     
 -5.238393641101952E-002
  0.107933275154427     
  0.115365038106805     
  0.411066241214944     
  0.417586802174475     
  0.687909045922896     
  0.694711505389958     
  0.213265398601145     
  0.207584954700144     
  0.131080895594016     
  0.122933053555695     
 -0.398807481538211     
 -0.246879726428174     
 -0.255814886562598     
  0.197609481951411     
  0.192587017491947     
 -4.061713657754263E-002
  0.146809471640574     
  0.139482138434778     
  0.175945135764546     
  0.182408833577358     
  0.426331341696639     
  0.433086623230417     
  0.162640651300989     
  0.157756984402338     
  0.672734806939450     
  0.679626204389317     
  0.442115683921103     
  0.448755411697921     
  0.657210816103442     
  0.663773765479065     
  0.465632888877187     
  0.458780402999079     
  0.642320027212151     
  0.649073557562243     
 -7.020055740555391E-002
  0.489265562905744     
  0.482632531161154     
  0.632852287101027     
  0.626338920362569     
  0.610385872923058     
  0.617164346631514     
  0.516378943023662     
  0.509865853433126     
  0.586868601955310     
  0.593488950444635     
 -5.948999846804216E-002
 -0.143217742274767     
 -0.152352160135688     
  0.537327476977672     
  0.543849035428971     
  0.562526822129898     
  0.569295269168153     
  0.799732554159556     
  0.770010983097941     
 -0.320847003804564     
  0.809885341830068     
 -0.417825861300959     
 -0.398485312886705     
 -0.403429713395361     
 -3.569101230672363E-002
 -2.189968567565456E-002
 -0.166871905269317     