 TITLE="euler solver on unstructured grid" 
 VARIABLES= "X" "Y"  "P" "Rou" "U"  "V"  "nuT"
 ZONE NODES=        5306  ELEMENTS=       10382  ZONETYPE=FETRIANGLE
 DATAPACKING=BLOCK
 VARLOCATION=([3-7]=CELLCENTERED)
 -0.272758900638264     
 -0.264122457042252     
 -0.255879303860344     
 -0.247701741098995     
 -0.239558675285292     
 -0.231438005175727     
 -0.223333512075715     
 -0.215241498383075     
 -0.204467234435774     
 -0.193708129740955     
 -0.182959622954321     
 -0.172220948428040     
 -0.161491718678138     
 -0.150768927033966     
 -0.140052774266441     
 -0.129343545182898     
 -0.118638737331165     
 -0.107938887627815     
 -9.724457500762715E-002
 -8.655350710946402E-002
 -7.586638892272460E-002
 -6.518392543680764E-002
 -5.450395034519619E-002
 -3.963418816115347E-002
 -2.477026650783306E-002
 -9.911723184961918E-003
  4.942819088164784E-003
  1.979165620530320E-002
  3.463616544715819E-002
  4.947655690476294E-002
  6.431308268735725E-002
  7.914599490418092E-002
  9.397546162806047E-002
  0.108802734085081     
  0.123625940096172     
  0.138446246851005     
  0.153263822422407     
  0.168078750846791     
  0.182891242215190     
  0.197701380564017     
  0.212510291064738     
  0.227316017501869     
  0.242119727065081     
  0.256921503790788     
  0.271721389697197     
  0.286519468820720     
  0.301315867215977     
  0.316111583999815     
  0.330904704974955     
  0.345696313294656     
  0.360486408958919     
  0.375275076004156     
  0.390062356448574     
  0.404848250292172     
  0.419633798670004     
  0.434417045366585     
  0.449198989498760     
  0.463979673084737     
  0.478759138142720     
  0.493537342654505     
  0.508314286620091     
  0.523091011174529     
  0.537865518084130     
  0.552638764447532     
  0.567410792282941     
  0.582181517553944     
  0.596951024296956     
  0.611719186457355     
  0.626487045170193     
  0.641252602201780     
  0.656016730614342     
  0.670779472426085     
  0.685540785618803     
  0.700300586156081     
  0.715058874037921     
  0.726357944536095     
  0.714819202187274     
  0.699889732131602     
  0.684961774731370     
  0.670035329986577     
  0.655110313860809     
  0.640186684335860     
  0.625264483429936     
  0.610342585971573     
  0.595422990194461     
  0.580504738999962     
  0.565587706333454     
  0.550671976231353     
  0.535757464657243     
  0.520844213629333     
  0.505931182012571     
  0.491020368040645     
  0.476110814614919     
  0.461202521735392     
  0.446295447383857     
  0.431389633578521     
  0.416485122337591     
  0.401580914544222     
  0.386679050450310     
  0.371778572957217     
  0.356879482064943     
  0.341981819791694     
  0.327085670173885     
  0.312191033211514     
  0.297296993824150     
  0.282405634281897     
  0.267515955467909     
  0.252628083436807     
  0.237742102225003     
  0.222858053850704     
  0.207976022350324     
  0.193095176679844     
  0.178217557091160     
  0.163342290522048     
  0.148469461008921     
  0.133599278642812     
  0.118731827460134     
  0.103867275533714     
  8.900479181953369E-002
  7.414650060590242E-002
  5.929165488521516E-002
  4.444042273029855E-002
  2.959305625039237E-002
  1.474980755473643E-002
 -8.911326563608478E-005
 -1.492432716371061E-002
 -2.975354177835040E-002
 -4.457737806254086E-002
 -5.939537381600907E-002
 -7.003055749934743E-002
 -8.066125455468987E-002
 -9.128929514290024E-002
 -0.101913386019687     
 -0.112532233940758     
 -0.123147543012358     
 -0.133757893935575     
 -0.144361825393291     
 -0.154960831400716     
 -0.165553198531494     
 -0.176137129322851     
 -0.186713613571520     
 -0.197280265559836     
 -0.207834321406276     
 -0.218375216233925     
 -0.226269072064075     
 -0.234150448486853     
 -0.242015647900077     
 -0.249858451609164     
 -0.257666758370604     
 -0.265409474711487     
  -9.84374528603020     
  -8.84462844085584     
  -7.84551159568148     
  -6.84639475050712     
  -5.84727790533277     
  -4.84816106015841     
  -3.84904421498405     
  -2.84992736980969     
  -1.85081052463533     
 -0.851693679460970     
  0.147423165713390     
   1.14654001088775     
   2.14565685606211     
   3.14477370123647     
   4.14389054641083     
   5.14300739158519     
   6.14212423675955     
   7.14124108193390     
   8.14035792710826     
   9.13947477228262     
   10.1385916174570     
   10.0965734108218     
   10.0545552041867     
   10.0125369975515     
   9.97051879091632     
   9.92850058428115     
   9.88648237764599     
   9.84446417101082     
   9.80244596437566     
   9.76042775774049     
   9.71840955110533     
   9.67639134447016     
   9.63437313783500     
   9.59235493119983     
   9.55033672456467     
   9.50831851792950     
   9.46630031129433     
   9.42428210465917     
   9.38226389802401     
   9.34024569138884     
   9.29822748475367     
   8.29911063957932     
   7.29999379440496     
   6.30087694923060     
   5.30176010405624     
   4.30264325888188     
   3.30352641370752     
   2.30440956853316     
   1.30529272335880     
  0.306175878184441     
 -0.692940966989918     
  -1.69205781216428     
  -2.69117465733864     
  -3.69029150251300     
  -4.68940834768735     
  -5.68852519286171     
  -6.68764203803607     
  -7.68675888321043     
  -8.68587572838479     
  -9.68499257355915     
  -10.6841094187335     
  -10.6420912120983     
  -10.6000730054632     
  -10.5580547988280     
  -10.5160365921929     
  -10.4740183855577     
  -10.4320001789225     
  -10.3899819722874     
  -10.3479637656522     
  -10.3059455590170     
  -10.2639273523819     
  -10.2219091457467     
  -10.1798909391115     
  -10.1378727324764     
  -10.0958545258412     
  -10.0538363192060     
  -10.0118181125709     
  -9.96979990593570     
  -9.92778169930054     
  -9.88576349266537     
 -0.219525635496642     
 -0.223376009216859     
 -0.210276149676617     
 -0.214290211114544     
 -0.231974680740299     
 -0.228249558478308     
 -0.215691558918941     
 -0.220378636481829     
 -0.204402073992734     
 -0.200199648732585     
 -0.240827962015545     
 -0.237246569762739     
 -0.224320437609901     
 -0.228944547512183     
 -0.206494770229269     
 -0.211352776264189     
 -0.246609676441012     
 -0.249918638765885     
 -0.194170215620646     
 -0.189790373562581     
 -0.233587231327631     
 -0.238254370227769     
 -0.276287338106835     
 -0.274447041890748     
 -0.258880799568730     
 -0.256114470081465     
 -0.213002850763006     
 -0.218516269329255     
 -0.196430112190662     
 -0.201464652112845     
 -0.220455804219012     
 -0.225749143450054     
 -0.282733070503086     
 -0.281749436375359     
 -0.183896213864775     
 -0.179356095990532     
 -0.265364663018143     
 -0.267443369461265     
 -0.284397752744867     
 -0.281058528835242     
 -0.248624969612285     
 -0.243985688502524     
 -0.289183489995095     
 -0.203302839671052     
 -0.209025166546767     
 -0.276088179935860     
 -0.272497671237209     
 -0.173745887419456     
 -0.169045037485836     
 -0.291924799540441     
 -0.186064295255921     
 -0.191247815591480     
 -0.228330657893331     
 -0.233888373631269     
 -0.290219538120105     
 -0.220847567931747     
 -0.226969927203867     
 -0.163566985665358     
 -0.158688990809381     
 -0.259270187430757     
 -0.254996101117580     
 -0.289888257989813     
 -0.211126715351374     
 -0.217565439991450     
 -0.293798729477616     
 -0.192675021073407     
 -0.198555004026847     
 -0.153073346719073     
 -0.148018583667734     
 -0.176039887909853     
 -0.181349980582269     
 -0.285435685657706     
 -0.269086268819718     
 -0.266076429519752     
 -0.239299386988004     
 -0.245214835238648     
 -0.299171610635763     
 -0.277432754179207     
 -0.142249196868136     
 -0.137043282731773     
 -0.300108867068198     
 -0.302105507509183     
 -0.277475982496621     
 -0.200002620411625     
 -0.206646046119053     
 -0.166463686664097     
 -0.171963064095392     
 -0.125942083473510     
 -0.131267238173678     
 -0.220688592623416     
 -0.227899548790371     
 -0.182055322093997     
 -0.188022653333861     
 -0.294547549927698     
 -0.231355756882364     
 -0.238133068172255     
 -0.120280288345434     
 -0.114867294265907     
 -0.252074678424774     
 -0.258204619409634     
 -0.162101728585726     
 -0.156344472007147     
 -0.300773301659898     
 -0.289564103021585     
 -0.304205773884236     
 -0.109386486233528     
 -0.103906382755927     
 -0.208800513986741     
 -0.216271467918295     
 -0.194881047056634     
 -0.188129231121831     
 -0.151200754400413     
 -0.145220619856215     
 -0.304758411722078     
 -0.173230361945266     
 -0.179203654473330     
 -9.853352659540381E-002
 -9.299950705606966E-002
 -0.286168507244954     
 -0.310750385176992     
 -0.265006854715523     
 -0.270834309932936     
 -0.309677044619114     
 -0.309640736412309     
 -0.301994670551502     
 -0.139841818233063     
 -0.133699161653885     
 -0.277425632283039     
 -8.788908658845479E-002
 -8.232847594755334E-002
 -0.313639985949657     
 -0.316154584868388     
 -0.171797709020187     
 -0.165422275241833     
 -7.751737665765453E-002
 -7.189924219885901E-002
 -0.203522461408033     
 -0.195886605347906     
 -0.313222953656958     
 -0.128340535868002     
 -0.122086977630400     
 -0.280525764078233     
 -0.246327868258148     
 -0.254109183785188     
 -0.219364919773027     
 -0.227745455797711     
 -0.176148731744715     
 -0.182866120414875     
 -0.292731412362924     
 -6.647732901153768E-002
 -6.076622679322446E-002
 -0.232492429573390     
 -0.240638389098033     
 -0.110726698015069     
 -0.117027968027152     
 -0.161004775861437     
 -0.154256270084463     
 -0.289677731658015     
 -4.790467701029176E-002
 -5.368212455524832E-002
 -0.315653876399073     
 -0.317193714250485     
 -0.106057436063796     
 -9.970612616573329E-002
 -0.322510817672891     
 -0.205609052378959     
 -0.214184466762910     
 -0.148940436134062     
 -0.141983081494040     
 -3.368758136589491E-002
 -3.951248471581447E-002
 -0.303480401650536     
 -0.189630433026345     
 -0.181939476830454     
 -0.323142360141899     
 -0.262684646588080     
 -0.271083641502972     
 -9.469685543924011E-002
 -8.831145647329285E-002
 -0.302842940018223     
 -1.894872435021026E-002
 -2.481475156335556E-002
 -0.326916541413969     
 -0.129959252414235     
 -0.137071642221439     
 -8.467233771943590E-002
 -7.840080868393916E-002
 -0.327874444794696     
 -0.276624623830685     
 -0.329928005061621     
 -0.166077867137140     
 -0.173631948480756     
 -0.286721374099209     
 -3.895799909382487E-003
 -9.807664488911469E-003
 -7.541475137017530E-002
 -6.891899309967477E-002
 -0.117386195701938     
 -0.124585055638510     
 -0.190743219107780     
 -0.199467637577395     
  1.131950690548774E-002
  5.341135885034464E-003
 -0.317233195478134     
 -0.240803569422699     
 -0.231394587910158     
 -0.217050492330055     
 -0.226602274928867     
 -6.287219328112070E-002
 -5.626757013289802E-002
 -0.245651982686990     
 -0.255056028920361     
 -0.317062115239387     
  2.047031182238069E-002
  2.656603445198022E-002
  0.324905174307552     
  0.319786555666890     
 -0.113560106866753     
 -0.106483524734856     
  0.339526461514959     
  0.334530959637319     
  0.310382756655445     
  0.305093794899836     
  4.175753229856855E-002
  3.547455041949572E-002
  0.726545818723549     
  0.725847174742590     
 -0.158354667473666     
 -0.150500571606852     
 -0.289400838870382     
 -4.931272800912772E-002
 -4.266109373477073E-002
  0.354273242489255     
  0.349376906087996     
  0.295854965162020     
  0.290349516191864     
 -0.330663673532385     
  5.685446244651469E-002
  5.036671984158604E-002
  0.364299909137970     
  0.369099499076687     
 -0.331316544151163     
  0.281243393480460     
  0.275515025162638     
  0.379265643049995     
  0.383960055320583     
  6.525369666765438E-002
  7.186292459579026E-002
  0.711918476249251     
  0.710902214609388     
  0.266544705823394     
  0.260641660954351     
  0.394259531933345     
  0.398837931352868     
  0.696782138040002     
  0.695489548432722     
  0.251784457656483     
  0.245774722324025     
  8.681794990019752E-002
  8.020971148909677E-002
  0.409281818103373     
  0.413734890089737     
  0.236977880843789     
  0.230902432329425     
  0.681640599095247     
  0.680099744408903     
  0.101762186164002     
  9.523189763897751E-002
  0.424337087688137     
  0.428657753074459     
  0.222125030940992     
  0.215989771932898     
  0.666587051192093     
  0.664818235144522     
  0.116734823046447     
  0.110295456942444     
  0.207213047821524     
  0.201012875305542     
  0.439417576973451     
  0.443599297268543     
  0.131767058219565     
  0.125389871139439     
  0.651603027872270     
  0.649621120357334     
  0.192224557135480     
  0.185961226494022     
  0.146869302606715     
  0.140517347164439     
  0.177151758330915     
  0.170838922320098     
  0.454479548904871     
  0.458515848675930     
  0.162015969053848     
  0.155675999759135     
  0.636643639819382     
  0.634460062900201     
  0.469458677654164     
  0.473345851873993     
  0.621675821873462     
  0.619301192712073     
 -0.103192309614922     
 -9.590203231327174E-002
 -0.337298498565368     
  0.488075707611806     
  0.484335607491635     
 -0.270320278467094     
 -0.260532561505123     
  0.606703265648541     
  0.604148721943431     
  0.499152068391699     
  0.502750296739968     
  0.589030725319389     
  0.591754966068460     
  0.513965844328359     
  0.517426359285859     
  0.573937589408196     
  0.576825174444466     
  0.528828440699226     
  0.532153550898446     
  0.558842749359681     
  0.561885928125894     
  0.546973938156034     
  0.543785967655408     
 -3.499357556072337E-002
 -2.830673201815513E-002
 -0.335801032525554     
 -0.332157235607259     
 -0.302011414960402     
 -0.138300846988671     
 -0.146183142182508     
 -0.183374598699094     
 -0.174591945916043     
 -0.201681703996713     
 -0.211435460944498     
 -0.332391617950164     
 -0.340359026958312     
 -8.789906407434141E-002
 -8.064061330473007E-002
 -1.995888108734774E-002
 -1.322531697312421E-002
 -0.343137801210151     
 -0.303025712954175     
  0.741319083479485     
  0.740979439948592     
 -0.343913437867598     
 -0.344504429800572     
 -0.126364055557029     
 -0.134568860571498     
  2.342460564121963E-003
 -0.275352782194359     
 -4.463524096109827E-003
 -0.346534200760869     
  0.739315868278410     
 -0.286185255397322     
 -0.168373955120754     
 -0.159666611787305     
 -0.346802826741078     
 -7.313066879377965E-002
 -6.567900621829914E-002
  1.806567255913326E-002
  1.112381709530032E-002
 -0.316953964132703     
 -0.116987052975237     
 -0.108788747696253     
  0.740375196091419     
 -0.240158034969192     
 -0.229625140043448     
 -5.930961472439789E-002
 -5.183901886262713E-002
 -0.317533508520226     
 -0.194609715812816     
 -0.184660891236753     
  2.647722458383676E-002
  0.312680104315747     
  0.319111801374337     
  0.327117546543780     
  0.333374136546878     
  3.372668049788373E-002
  0.304983944711662     
  0.298241247744094     
  0.347978820442281     
  0.341814884841174     
  4.143814439793458E-002
  4.919396689575101E-002
 -0.214469629744296     
 -0.225218617974605     
 -0.244000762225839     
 -0.254540917202152     
  0.290678829117154     
  0.283529256571956     
  0.362820002432640     
  0.356729727512721     
  6.444018571338778E-002
  5.624243696551347E-002
  0.756203035684238     
  0.268634710752624     
  0.276142053789300     
  0.371742939660754     
  0.377746003517159     
 -0.348845497179169     
  0.757094913564270     
  0.724384873942432     
  0.722874408737467     
  7.953231831414757E-002
  7.120777415145205E-002
  0.253768792294862     
  0.261462042953311     
  0.386807788790931     
  0.392701272752629     
  0.708533533117660     
  0.706621246077851     
  0.246691591064807     
  0.238952776904174     
  0.407682111496086     
  0.401916932823536     
 -4.561033772125596E-002
 -3.814291594395618E-002
  8.635873638147555E-002
  9.456468970077889E-002
  0.690564730365926     
  0.692824450299289     
  0.224083305523537     
  0.231843434517999     
  0.422711913077416     
  0.417087850237514     
  0.101602827361297     
  0.109622455905258     
  0.674809390116416     
  0.677373083418977     
  0.209089060797985     
  0.216901109352279     
  0.116900173956230     
  0.124783335628216     
  0.432340025186056     
  0.437813606319512     
 -0.288652038055928     
  0.662134219922988     
  0.659296637145550     
  0.193945492444544     
  0.201824644827998     
  0.140107388444126     
  0.132249963366401     
 -0.151995714866107     
 -0.142742398605937     
  0.178632427607519     
  0.186567622197115     
  0.155590374273241     
  0.147678639505656     
  0.447646367544794     
  0.452958983033166     
  0.163174002360426     
  0.171126630544341     
  0.646993311927110     
  0.643902282254718     
  0.467981158069297     
  0.462842528153687     
  0.628518549232595     
  0.631846412057273     
 -0.352787040056643     
  0.482734460999579     
  0.477769324018471     
  0.613094960232534     
  0.616641859479578     
  0.492492271216640     
  0.497299237470261     
  0.601455918622009     
  0.597713179923006     
 -0.258966429458659     
 -0.269826539554193     
  0.507158541539051     
  0.511821003234467     
  0.586387331548383     
  0.582462715729097     
  0.526400004273881     
  0.521872400750593     
  0.567197406300781     
  0.571301681455665     
  0.541134892658835     
  0.536737327454369     
  0.551872143656063     
  0.556135270637387     
  0.756801803798959     
 -0.348111760772986     
 -0.348883148237703     
 -0.301272187524265     
 -2.336943468352792E-002
 -3.086306737820047E-002
 -9.161912431107000E-002
 -0.100026220675392     
 -0.332453025791591     
 -0.356805111750800     
 -0.333131949541047     
 -0.174501221207543     
 -0.164417946510348     
 -0.197432125706488     
 -0.208472333947266     
 -0.355895645583048     
 -7.374743543526665E-003
 -1.492565434631553E-002
  0.754107291378619     
  0.755387369486038     
 -0.302414977963960     
 -0.360658079083596     
 -7.584631333393865E-002
 -8.426483200084268E-002
 -0.359810208959029     
  8.964631351303376E-003
 -0.285536125699267     
 -0.121093043410148     
 -0.130625756138909     
  1.328924460022150E-003
 -0.362898084113310     
 -0.359615982312825     
 -0.274002946486877     
  0.736206872187058     
 -0.364008443732234     
 -6.076817180274765E-002
 -6.913511226483821E-002
 -0.229070628171053     
 -0.240742055195248     
  1.747186911550572E-002
  2.528051582405848E-002
 -0.316326003183997     
 -0.348945810851018     
  0.738089363902297     
 -0.350050248760263     
  0.319772786780828     
  0.327220485232716     
  0.306032337403560     
  0.313772215095204     
  3.276971356783995E-002
  0.773073806473029     
  4.131432714230000E-002
  0.334078025843231     
  0.341456673313740     
  0.300084171570490     
  0.291730252083762     
  0.356365491001923     
  0.349010198788373     
  0.772401202230830     
  4.718611667411125E-002
  5.690352699084589E-002
 -5.592344302323212E-002
 -4.775058779670804E-002
  0.285758800745892     
  0.276675977235482     
  0.371390975488101     
  0.364083989781389     
  0.773918609966942     
 -0.316916577460245     
  7.214391131252652E-002
  6.189327877429378E-002
 -0.364036318859559     
  0.261651531158708     
  0.271170226669605     
  0.379219443867660     
  0.386432106614803     
  0.721047780764014     
  0.718617122040425     
  0.246931487410694     
  0.256454714852524     
  7.718304850032762E-002
  8.723184293140224E-002
  0.394391941306056     
  0.401474564678056     
 -0.190361168087033     
 -0.179016437965960     
  0.704388860721372     
  0.701493891174729     
  0.241648021041167     
  0.232228972260625     
 -0.112420742233612     
 -0.102825842140413     
  0.102306410111997     
  9.261620617274649E-002
  0.773713658626072     
  0.416557252619131     
  0.409625441328621     
  0.685048004405284     
  0.688329466380517     
 -0.252966932768706     
 -0.241577978425058     
  0.217305728440936     
  0.226739139517664     
  0.117486691248747     
  0.108118290573793     
  0.431753770818480     
  0.424983140390304     
  0.202160489277428     
  0.211679156491279     
  0.672786272413879     
  0.669167701130844     
  0.123655018551436     
  0.132903005755919     
  0.186772043132691     
  0.196371072659608     
  0.148672214445265     
  0.139276296978488     
  0.180702409942926     
  0.171048842834592     
  0.440530603367118     
  0.447131922029434     
  0.164710718117714     
  0.155104955558768     
  0.657494369397500     
  0.653568155709125     
 -0.366635824923891     
 -0.211797405162058     
 -0.223837820487113     
  0.456236527875443     
  0.462648791535075     
  0.638029391596406     
  0.642243474496702     
  0.471438746235870     
  0.477623788140329     
  0.622379833324346     
  0.626864345294392     
 -0.368994039706200     
  0.486026089729246     
  0.492024799278887     
 -0.365286047510327     
  0.611272765716023     
  0.606544679125711     
 -3.518602405229568E-002
 -4.339733270050666E-002
  0.500493422730852     
  0.506334463814231     
  0.595930171166151     
  0.591016723951837     
  0.514958270747809     
  0.520660463241984     
  0.575887527363085     
  0.581003454467180     
  0.535147897366103     
  0.529571564825759     
  0.560179774682229     
  0.565516231548123     
  0.549941005028926     
  0.544481185473001     
 -0.287475971640948     
 -0.159867175064877     
 -0.149040660007062     
  0.771360481276119     
 -0.256582353995848     
 -0.268345497482877     
 -8.589016606503858E-002
 -9.547769195381570E-002
 -0.300413562021395     
 -1.825103885422399E-002
 -2.643775931622652E-002
 -0.366781452250043     
  0.750884056326607     
 -0.143496109649520     
 -0.132612533191625     
 -0.373755788847877     
 -0.331902898662309     
 -0.332755244965968     
 -0.372039296222096     
  0.770059954505642     
 -0.368404921749018     
 -9.863497259160157E-004
 -9.309997209062433E-003
 -7.070197532339326E-002
 -0.376528541291908     
 -8.002671012675637E-002
  0.752981699716262     
 -0.172892682327820     
 -0.161176324508345     
 -0.205313833246620     
 -0.192842606997189     
 -0.378326244759472     
 -0.300636154678491     
 -0.373296048017271     
 -0.272807088688870     
 -0.285045464748118     
 -0.380652806888998     
 -0.241219824291726     
 -0.228323731069287     
  1.618764509139363E-002
  7.925249094310652E-003
  0.790001726823771     
 -0.113330265159556     
 -0.124317854604014     
 -0.383874328273648     
  0.731816028981051     
 -0.382436314230892     
 -0.350228926195856     
  2.505431858070722E-002
  3.316300951519469E-002
  0.313024747518247     
  0.321430067267442     
  0.325647898042493     
  0.334122347239641     
 -5.304986465958588E-002
  0.300694505915539     
  0.309764432712919     
  3.884068800921718E-002
  0.789542072203525     
 -0.314713609075777     
 -0.348769053655392     
 -6.227990831555563E-002
  0.734646638357259     
  4.937552695475301E-002
  0.341042024272452     
  0.349606118343060     
  0.285161807764225     
  0.295525423469900     
  0.791389221447319     
  5.178525512179608E-002
  0.364851916722396     
  0.356243854652285     
  6.473202097199385E-002
  0.280947676996149     
  0.269305894132559     
  0.371485735280050     
  0.380031400763929     
  6.761167147578397E-002
  7.982574800450122E-002
  0.254551986179411     
  0.266266759219212     
 -0.380243839332567     
 -0.385751295472341     
  0.386732055795392     
  0.395142962723594     
  0.716467609365265     
  0.713011380609873     
  0.240394615431775     
  0.251510247092109     
  0.791245120242074     
  8.327126336227832E-002
  9.484386040774778E-002
  0.401980033738715     
  0.410223799921861     
  0.236674036243754     
  0.225661960754011     
  0.791863925352146     
  0.699293505408771     
  0.695368648253166     
  0.109939204403278     
  9.902956807838438E-002
 -9.639471061005120E-002
  0.210559441439343     
  0.221712473542862     
 -0.107148093349987     
  0.425391298320374     
  0.417327681066743     
  0.125240796778797     
  0.114778338063318     
  0.683420425249590     
  0.679102515310478     
  0.195230994288337     
  0.206541327785164     
 -0.156431848468717     
 -0.144265246249141     
  0.130488252212402     
  0.141028277291109     
  0.179541967351387     
  0.190910547557494     
  0.146371784450599     
  0.157619927760406     
  0.440814619678391     
  0.432928637609197     
  0.162983084567419     
  0.174505985343884     
 -0.314773920502388     
  0.668030609823167     
  0.663356335915409     
  0.766918265601573     
  0.448998322674092     
  0.456705008208745     
  0.652803465896325     
  0.647791928634725     
  0.465919580120359     
  0.473401514197461     
  0.632116173579617     
  0.637451215166177     
  0.479803200556202     
  0.486867356388914     
 -0.221995982348359     
 -0.208479407201476     
  0.616045287446635     
  0.621695959402468     
 -0.260981523314018     
 -0.248437127448244     
  0.501208152026781     
  0.494129771314872     
  0.604993865636970     
  0.599062448706576     
  0.508169941485208     
  0.514912894946599     
  0.590399358474138     
  0.584452424638652     
  0.522461160858695     
  0.529265804565364     
  0.576409065031702     
  0.570023339972692     
  0.543403649243684     
  0.536900192935495     
  0.558225298436794     
  0.551612903567442     
 -0.186326067236659     
 -0.173487990114220     
 -0.385920257360186     
 -3.085391675371283E-002
 -3.941467908473412E-002
  0.788072882228312     
 -0.286098192194494     
 -0.386103919961099     
  0.769038271058784     
 -7.816309734124502E-002
 -8.906103970328454E-002
 -0.369289494823813     
  0.786980754834630     
 -0.367287607673600     
 -0.329921882475163     
 -0.299403582471938     
 -1.205498236139980E-002
 -0.391444098362478     
 -2.087138333758853E-002
  0.746647221600296     
 -0.137734145674613     
 -0.125266731222688     
 -0.390146100594023     
 -0.388406432187427     
 -0.331176576209743     
 -0.388214983858455     
 -0.394848826087954     
 -3.040757185793061E-003
  6.287002734580875E-003
 -0.397302848193641     
  0.749716006382973     
  0.807226865251870     
 -0.399960834208989     
 -0.241651447726812     
 -0.227390041369377     
 -0.295886764256881     
 -0.169823289087750     
 -0.156794829133067     
 -0.200824873425508     
 -0.186711626758092     
 -0.403954694715917     
 -0.101910695404180     
 -0.114500151286038     
 -0.273479553303560     
 -0.286610829856422     
  2.410024770131155E-002
 -0.389874345368126     
  1.588226867678382E-002
  0.784068754559704     
 -0.402278001649902     
  0.725932198716450     
  0.807387020011402     
  3.727054805500268E-002
  4.242044801948047E-002
  0.809303230319530     
  0.312920912704025     
  0.322222020578416     
  0.332973463522820     
  0.342718917677504     
  0.295232888036682     
  0.305508912171324     
 -0.349446921081195     
  5.744300206648209E-002
  0.348215317393718     
  0.358020477037159     
  0.729863329401060     
  0.277270495656225     
  0.291064940794136     
 -0.387380282397528     
 -0.347443288344524     
  7.244871453132931E-002
  0.373580000878144     
  0.363537776834510     
  0.275894766496408     
  0.260465993477416     
  5.774638681840435E-002
  0.809649161844363     
  7.363082431175810E-002
  8.732911178063048E-002
  0.248507037479542     
  0.261632179905017     
 -0.310098924582028     
  0.379006777908209     
  0.388662086817852     
  0.810608964378588     
  0.234428243800738     
  0.246404278672445     
  0.102233158040483     
  8.940034075987338E-002
  0.394218637785965     
  0.403900110842102     
  0.709783830846025     
  0.705190092752088     
 -0.406257041203900     
  0.232050307343066     
  0.218990605480550     
  0.810761426531060     
  0.786060443070375     
 -4.198773623296778E-002
  0.117355134372165     
  0.105841962075337     
  0.418741978739551     
  0.409498978819584     
  0.693527321222208     
  0.688659544754876     
  0.203933415345971     
  0.216604795083035     
  0.121392334041069     
  0.132592405664200     
 -0.398600959566044     
 -0.258041103793506     
 -0.244563717730936     
  0.188333654496767     
  0.201969778825574     
 -5.104449591743165E-002
  0.137319804973869     
  0.149030933120410     
  0.185351322510927     
  0.172785161290267     
  0.434124159138515     
  0.424870509429113     
  0.152933105021879     
  0.167692014784860     
  0.678657135864752     
  0.673257122120367     
  0.449654001552338     
  0.440790900573483     
  0.663075330855878     
  0.657445804034422     
  0.457522244323479     
  0.466457680351295     
  0.648537328479079     
  0.642388243324308     
 -5.936533598968199E-002
  0.481466879292024     
  0.489991463361078     
  0.626176273170141     
  0.632538562193964     
  0.617002310721534     
  0.610071970556124     
  0.508782131277098     
  0.517011687335066     
  0.593588305783832     
  0.586292195240944     
 -7.038102133671792E-002
 -0.154737928918498     
 -0.140709076688657     
  0.544353619919499     
  0.536359771438654     
  0.569624633008094     
  0.561725876304538     
  0.805140694206642     
  0.763339712064943     
 -0.311020190187334     
  0.804374168071376     
 -0.409458440918352     
 -0.406872009299508     
 -0.402041541451917     
 -2.491598933685206E-002
 -3.258575831617369E-002
 -0.178674477875450     