 TITLE="euler solver on unstructured grid" 
 VARIABLES= "X" "Y"  "P" "Rou" "U"  "V"  "nuT"
 ZONE NODES=        5306  ELEMENTS=       10382  ZONETYPE=FETRIANGLE
 DATAPACKING=BLOCK
 VARLOCATION=([3-7]=CELLCENTERED)
 -0.272871149059633     
 -0.265345410672643     
 -0.257532127642973     
 -0.249670889785608     
 -0.241784430330845     
 -0.233881596806152     
 -0.225966935857589     
 -0.218043150896324     
 -0.207466496651897     
 -0.196880489099522     
 -0.186285003138646     
 -0.175682328561703     
 -0.165074478675893     
 -0.154460191719149     
 -0.143841050910531     
 -0.133218578027936     
 -0.122591142662317     
 -0.111960082268084     
 -0.101326703579062     
 -9.068922258329859E-002
 -8.004885385287586E-002
 -6.940681195987571E-002
 -5.876122073060090E-002
 -4.393015694119413E-002
 -2.909482299096127E-002
 -1.425555680629857E-002
  5.883646555721296E-004
  1.543472729455739E-002
  3.028425415343539E-002
  4.513679162929873E-002
  5.999215539865849E-002
  7.485016113802577E-002
  8.971068596507460E-002
  0.104574545084328     
  0.119439647278018     
  0.134306869191830     
  0.149176087943438     
  0.164047242091680     
  0.178920178033648     
  0.193794834328179     
  0.208672118341540     
  0.223550000297127     
  0.238429356840625     
  0.253310126530871     
  0.268192278647284     
  0.283075751748701     
  0.297960453673377     
  0.312847383949323     
  0.327734482079355     
  0.342622686150320     
  0.357511996162219     
  0.372402350673887     
  0.387293718964745     
  0.402186101034792     
  0.417080465691457     
  0.431974783158137     
  0.446870052962844     
  0.461766244384994     
  0.476663326704008     
  0.491561330640466     
  0.506460256194368     
  0.521361072173145     
  0.536261779520774     
  0.551163408485847     
  0.566065928347783     
  0.580969400547745     
  0.595873763644570     
  0.610779109800002     
  0.625686407821473     
  0.640593658652957     
  0.655501953984212     
  0.670411263094655     
  0.685321616704870     
  0.700233076256017     
  0.715145641748098     
  0.726656862490494     
  0.715320871944877     
  0.700533462101757     
  0.685744946317704     
  0.670955324592718     
  0.656164658367962     
  0.641372978364016     
  0.626580253860300     
  0.611785577490546     
  0.596990948310778     
  0.582195336072403     
  0.567398832937164     
  0.552601377463900     
  0.537803031093772     
  0.523003763106201     
  0.508202604693754     
  0.493401554912456     
  0.478599583513714     
  0.463796690497527     
  0.448992906584477     
  0.434188201053982     
  0.419382543185462     
  0.404574933450904     
  0.389767340185750     
  0.374958733141408     
  0.360149112317876     
  0.345338446994574     
  0.330526675730338     
  0.315713798525170     
  0.300898754409893     
  0.286083480999368     
  0.271266978765584     
  0.256449155546797     
  0.241629949901842     
  0.226809331110140     
  0.211987237730526     
  0.197162547352664     
  0.182337228311994     
  0.167510188918762     
  0.152681367731803     
  0.137850611148211     
  0.123017857726823     
  0.108182984585312     
  9.334486931334195E-002
  7.850541880519039E-002
  6.366344920935720E-002
  4.881883764351646E-002
  3.397139978417930E-002
  1.912095130785681E-002
  4.267338611641574E-003
 -1.059071431771127E-002
 -2.545142346824906E-002
 -4.031606485321663E-002
 -5.518497639901036E-002
 -6.586331576814598E-002
 -7.654320541753309E-002
 -8.722676728552081E-002
 -9.791321688816793E-002
 -0.108601769741533     
 -0.119294639945710     
 -0.129991135178502     
 -0.140690593838294     
 -0.151395383628086     
 -0.162105027269753     
 -0.172819108926331     
 -0.183540364947798     
 -0.194268809585332     
 -0.205004733575344     
 -0.215752009929328     
 -0.223820673152865     
 -0.231898460389104     
 -0.239988075049213     
 -0.248094063779252     
 -0.256225274106689     
 -0.264404439261821     
  -10.5753570793902     
  -9.57582906784005     
  -8.57630105628992     
  -7.57677304473980     
  -6.57724503318967     
  -5.57771702163954     
  -4.57818901008941     
  -3.57866099853929     
  -2.57913298698916     
  -1.57960497543903     
 -0.580076963888906     
  0.419451047661221     
   1.41897905921135     
   2.41850707076147     
   3.41803508231160     
   4.41756309386173     
   5.41709110541186     
   6.41661911696198     
   7.41614712851211     
   8.41567514006224     
   9.41520315161236     
   9.44592373309529     
   9.47664431457822     
   9.50736489606115     
   9.53808547754407     
   9.56880605902700     
   9.59952664050993     
   9.63024722199285     
   9.66096780347578     
   9.69168838495871     
   9.72240896644164     
   9.75312954792457     
   9.78385012940749     
   9.81457071089042     
   9.84529129237335     
   9.87601187385627     
   9.90673245533920     
   9.93745303682213     
   9.96817361830506     
   9.99889419978798     
   10.0296147812709     
   9.03008676972078     
   8.03055875817066     
   7.03103074662053     
   6.03150273507040     
   5.03197472352028     
   4.03244671197015     
   3.03291870042002     
   2.03339068886989     
   1.03386267731977     
  3.433466576964017E-002
 -0.965193345780487     
  -1.96472135733061     
  -2.96424936888074     
  -3.96377738043087     
  -4.96330539198100     
  -5.96283340353112     
  -6.96236141508125     
  -7.96188942663138     
  -8.96141743818150     
  -9.96094544973163     
  -9.99166603121456     
  -10.0223866126975     
  -10.0531071941804     
  -10.0838277756633     
  -10.1145483571463     
  -10.1452689386292     
  -10.1759895201121     
  -10.2067101015950     
  -10.2374306830780     
  -10.2681512645609     
  -10.2988718460438     
  -10.3295924275268     
  -10.3603130090097     
  -10.3910335904926     
  -10.4217541719755     
  -10.4524747534585     
  -10.4831953349414     
  -10.5139159164243     
  -10.5446364979073     
 -0.222815141705241     
 -0.220268013579295     
 -0.213740320109883     
 -0.210999125387649     
 -0.229033757553190     
 -0.231381012658733     
 -0.219611053717555     
 -0.216635570919450     
 -0.200917098390183     
 -0.203849121941584     
 -0.238077337940577     
 -0.240198926830945     
 -0.228101958322863     
 -0.225348627579281     
 -0.210614306432823     
 -0.207401056965418     
 -0.249320254905601     
 -0.247422931589999     
 -0.190506822145633     
 -0.193609733824024     
 -0.237270867154114     
 -0.234768760087417     
 -0.275636277603176     
 -0.275383583856634     
 -0.256722701893408     
 -0.258495249740564     
 -0.217554049633862     
 -0.214136163602030     
 -0.200745243753350     
 -0.197308813438927     
 -0.224755860459422     
 -0.221628457620909     
 -0.282562611850359     
 -0.282294456375669     
 -0.180074938766603     
 -0.183324961312824     
 -0.267316627205398     
 -0.265696491507914     
 -0.283523773061529     
 -0.282348410449630     
 -0.245327758369751     
 -0.247500691504817     
 -0.289411820910373     
 -0.208107792386609     
 -0.204382332469214     
 -0.274771908666174     
 -0.274010184802055     
 -0.169771998205129     
 -0.173158220139546     
 -0.291543682288524     
 -0.190541379515884     
 -0.186921808490888     
 -0.232685829955802     
 -0.229721170320920     
 -0.291093823718667     
 -0.225728531699683     
 -0.222264719401070     
 -0.159430437511872     
 -0.162956381658613     
 -0.256298225876211     
 -0.258213151830966     
 -0.291598127243679     
 -0.216391970621215     
 -0.212464861495977     
 -0.292662047575532     
 -0.197680801372332     
 -0.193702885461395     
 -0.148776112753394     
 -0.152437870661386     
 -0.180648078552903     
 -0.176885105038253     
 -0.283851531758298     
 -0.266562166238155     
 -0.268857021864997     
 -0.243656781193072     
 -0.241062719051254     
 -0.299447043528124     
 -0.279593205328050     
 -0.137812771457716     
 -0.141592651809550     
 -0.301306286933156     
 -0.301499514680346     
 -0.275443489450262     
 -0.205555544406269     
 -0.201248509077548     
 -0.171244857374172     
 -0.167317542832469     
 -0.130595203328451     
 -0.126717763115438     
 -0.226370338966149     
 -0.222384831975974     
 -0.187184382612229     
 -0.183039495678939     
 -0.292627513175746     
 -0.236469099015742     
 -0.233203905661181     
 -0.115642665991510     
 -0.119599205879926     
 -0.256235984867818     
 -0.254286441233107     
 -0.157222494523085     
 -0.161350980136953     
 -0.302854472037283     
 -0.292218321926758     
 -0.302756362000087     
 -0.104675407991468     
 -0.108702465367393     
 -0.214896872311492     
 -0.210330984572562     
 -0.189295112053292     
 -0.193862353054279     
 -0.146116889561728     
 -0.150422512999040     
 -0.302390201566480     
 -0.178392918156788     
 -0.174180700490092     
 -9.375613936893086E-002
 -9.785271828697512E-002
 -0.283949276078037     
 -0.311460127700264     
 -0.268754808273180     
 -0.267404080391789     
 -0.309584122342953     
 -0.311173730240194     
 -0.305049216031713     
 -0.134603073926541     
 -0.139046205448820     
 -0.280646624050350     
 -8.306657545277510E-002
 -8.721806096249146E-002
 -0.312792431469892     
 -0.314342337395001     
 -0.166419982552665     
 -0.170932789963512     
 -7.261547660159198E-002
 -7.685988146941275E-002
 -0.197285183302715     
 -0.202271445540251     
 -0.315557578489181     
 -0.122987633296701     
 -0.127538143965670     
 -0.277728171767526     
 -0.251630673529437     
 -0.249007994297254     
 -0.225991644847595     
 -0.221272128768472     
 -0.181912370106515     
 -0.177241933177570     
 -0.289976319697200     
 -6.145118006845227E-002
 -6.584279039102604E-002
 -0.238575255882349     
 -0.234723226794982     
 -0.116232565493286     
 -0.111610495365073     
 -0.155290054290233     
 -0.160094481229996     
 -0.293371681706004     
 -5.308237529044597E-002
 -4.854658877808002E-002
 -0.319068037756387     
 -0.314330139794932     
 -0.100565260910425     
 -0.105277027713563     
 -0.322515875398402     
 -0.212645364554101     
 -0.207293948736073     
 -0.143024919462738     
 -0.148011970262526     
 -3.895070866502946E-002
 -3.428421057191264E-002
 -0.300079438672626     
 -0.183237633168645     
 -0.188471954455465     
 -0.324482031546266     
 -0.267501413508111     
 -0.266540164657096     
 -8.913170893599877E-002
 -9.394555747287157E-002
 -0.306986149131640     
 -2.428257293685304E-002
 -1.951023379811852E-002
 -0.325789879777519     
 -0.136134321947592     
 -0.130999493831719     
 -7.917240237232813E-002
 -8.396216396823912E-002
 -0.330454459379576     
 -0.280907539276349     
 -0.327715228567495     
 -0.172561138520317     
 -0.167278801258338     
 -0.282906342156356     
 -9.282153373968493E-003
 -4.446718235465788E-003
 -6.964712722416512E-002
 -7.474026715530274E-002
 -0.123657418439951     
 -0.118405393566082     
 -0.198066431385267     
 -0.192284120433115     
  5.901603658676424E-003
  1.073653112934693E-002
 -0.313223998209935     
 -0.233782262555607     
 -0.238559449207562     
 -0.224717164356491     
 -0.219074714763913     
 -5.690814631568969E-002
 -6.227740901820521E-002
 -0.252234340185259     
 -0.248629555107465     
 -0.321645158708203     
  2.588067117893972E-002
  2.113640575175239E-002
  0.320681215277017     
  0.324290703187552     
 -0.107450460854173     
 -0.112675365590034     
  0.335382025047607     
  0.338963260433973     
  0.306073335199732     
  0.309676576712653     
  3.633238010437118E-002
  4.088848707561746E-002
  0.725775772534309     
  0.727102959628154     
 -0.151705431177230     
 -0.157268012975763     
 -0.294201425904394     
 -4.319977144205941E-002
 -4.881498512996113E-002
  0.350210621116772     
  0.353736827175369     
  0.291451391993698     
  0.295018113947572     
 -0.334445471349184     
  5.144490862357075E-002
  5.578292172167341E-002
  0.368582076450416     
  0.365125739191758     
 -0.327946156873762     
  0.276741748946818     
  0.280268696002203     
  0.383464246410541     
  0.380082039212478     
  7.067319477113333E-002
  6.647524068900426E-002
  0.710894625091201     
  0.712437249472674     
  0.261945979934337     
  0.265474000896489     
  0.398369773751723     
  0.395060795452827     
  0.695565074702161     
  0.697226170124907     
  0.247091418911492     
  0.250680662914285     
  8.145537339109221E-002
  8.562803790142560E-002
  0.413299519315713     
  0.410062622008431     
  0.232193398593616     
  0.235879992400190     
  0.680257837786761     
  0.682003046695717     
  9.642678616084158E-002
  0.100640377964479     
  0.428257569100946     
  0.425094641529754     
  0.217251705361755     
  0.221037734395225     
  0.665051484123211     
  0.666871324977097     
  0.111428815746153     
  0.115685268343702     
  0.202253597482351     
  0.206129125624816     
  0.443234548288873     
  0.440151235915174     
  0.126494185984292     
  0.130753445130641     
  0.649920416833525     
  0.651815781927057     
  0.187182886655148     
  0.191142132481535     
  0.141636564279793     
  0.145847792799533     
  0.172034723014882     
  0.176078430695650     
  0.458185275806781     
  0.455190292002415     
  0.156834521872106     
  0.160965537692056     
  0.634817356279811     
  0.636791312703053     
  0.473047618414876     
  0.470148170039896     
  0.619709732987359     
  0.621764033305493     
 -9.684114664377605E-002
 -0.102325051826116     
 -0.337815405751707     
  0.485005575654749     
  0.487808047455608     
 -0.264518491200084     
 -0.266517560225287     
  0.604602978959723     
  0.606736746150335     
  0.502512173424363     
  0.499803566646366     
  0.591738403313630     
  0.589525373492217     
  0.517218262438274     
  0.514598404375387     
  0.576762712360262     
  0.574467971538427     
  0.531976887986314     
  0.529440630722910     
  0.561781693315493     
  0.559404334093509     
  0.544374745080745     
  0.546831669110537     
 -2.875018237791123E-002
 -3.459043535682423E-002
 -0.335336564227800     
 -0.327570247005240     
 -0.297427015482288     
 -0.145112414539050     
 -0.139479910271883     
 -0.176037345995933     
 -0.182061357435553     
 -0.209764473108133     
 -0.203489779739597     
 -0.337421857259231     
 -0.342052502633068     
 -8.147165250581809E-002
 -8.712691437650874E-002
 -1.360962485000802E-002
 -1.961828503412049E-002
 -0.341711606592511     
 -0.308330118838249     
  0.740929796189315     
  0.741776700925589     
 -0.346822231449266     
 -0.341831052648522     
 -0.133471979137272     
 -0.127557834516235     
 -4.124612770158249E-003
 -0.280760485250898     
  1.953776996000189E-003
 -0.342664726823445     
  0.741318333016139     
 -0.281006051872050     
 -0.161039703747107     
 -0.167124046049137     
 -0.350967509816492     
 -6.636406587854689E-002
 -7.249275131999031E-002
  1.156024477465646E-002
  1.757120039590949E-002
 -0.311715270644208     
 -0.109903827578144     
 -0.115952139702836     
  0.738746353362430     
 -0.232021308182536     
 -0.237885772764298     
 -5.235406601930818E-002
 -5.883584859722949E-002
 -0.323347975294134     
 -0.186351622083915     
 -0.193052482643234     
  3.292473472707454E-002
  0.318228731121079     
  0.313858688021011     
  0.332604291569469     
  0.328183736894980     
  2.721342294232076E-002
  0.299639805403286     
  0.303881192856936     
  0.342844785536196     
  0.347249844451969     
  4.788273872265627E-002
  4.269406644905496E-002
 -0.223260339687819     
 -0.216556606715710     
 -0.251739261867473     
 -0.246922545022129     
  0.285223895835574     
  0.289273860188443     
  0.357755911299984     
  0.362103481998519     
  5.796300241443128E-002
  6.270336775414011E-002
  0.757669063936869     
  0.274471296393041     
  0.270574266785470     
  0.377044186830678     
  0.372766260389292     
 -0.348552659261313     
  0.757240160299443     
  0.722419982086989     
  0.725270418551320     
  7.307886554183947E-002
  7.769066624314803E-002
  0.259683613565521     
  0.255784391761295     
  0.392028102914267     
  0.387815588059714     
  0.706323121516033     
  0.709294512383477     
  0.240907188803673     
  0.244944042715286     
  0.402895872435040     
  0.407050737186414     
 -3.847889485267503E-002
 -4.531681439153766E-002
  9.285088292324996E-002
  8.813289114014532E-002
  0.693442810829001     
  0.690426214861358     
  0.230153940497603     
  0.225954279104590     
  0.418029454233442     
  0.422129931823774     
  0.108089715462435     
  0.103209870127132     
  0.677854968400926     
  0.674815599656586     
  0.215239850281971     
  0.210908289752639     
  0.123370402828466     
  0.118389131993928     
  0.437282581605796     
  0.433241781798464     
 -0.294612914646443     
  0.659427797516837     
  0.662493894053120     
  0.200175087204711     
  0.195729590063810     
  0.133735410144814     
  0.138695442288614     
 -0.144159625510330     
 -0.150687776731413     
  0.184936166982369     
  0.180375132620685     
  0.149254226621041     
  0.154091172229454     
  0.452476419578046     
  0.448510055660337     
  0.169540389274062     
  0.164850352243593     
  0.644141032392947     
  0.647244514745477     
  0.463671876522361     
  0.467542867298135     
  0.632000690578992     
  0.628850863045706     
 -0.353602982570929     
  0.478568883553025     
  0.482335692325939     
  0.616708328783535     
  0.613509943643602     
  0.496936225770101     
  0.493265856559681     
  0.598201088944460     
  0.601443008848705     
 -0.266161990508305     
 -0.262750182706446     
  0.511492907737983     
  0.507907083396913     
  0.583013688837491     
  0.586303813356633     
  0.522594175461269     
  0.526108562678919     
  0.571155230502496     
  0.567802779776421     
  0.537427833489154     
  0.540884514546930     
  0.555933013443229     
  0.552524107368247     
  0.755620652055290     
 -0.342959868028949     
 -0.354367194933552     
 -0.295421950027663     
 -3.073661961306181E-002
 -2.354806711127906E-002
 -9.908045126802055E-002
 -9.262707852371546E-002
 -0.326580500780007     
 -0.358796823611415     
 -0.339473863653309     
 -0.166041903109673     
 -0.173001781302390     
 -0.206676290162881     
 -0.199361045025115     
 -0.353818645075468     
 -1.487812271181311E-002
 -7.489570013360291E-003
  0.756921165724828     
  0.752848763873456     
 -0.308928018432947     
 -0.363888724654182     
 -8.350296012314626E-002
 -7.665561750504378E-002
 -0.356728952055689     
  1.383521065526343E-003
 -0.279071957281976     
 -0.129332941411440     
 -0.122474052743466     
  8.826112309002473E-003
 -0.358551378234220     
 -0.358479517352681     
 -0.280589317312583     
  0.739486090779060     
 -0.368549000725336     
 -6.865159300601792E-002
 -6.128835803348611E-002
 -0.238484951395969     
 -0.231437404407657     
  2.497152406861532E-002
  1.767133532950424E-002
 -0.309810160242424     
 -0.342431729133430     
  0.735158359823670     
 -0.356930317396244     
  0.326266923829168     
  0.321036069691464     
  0.312595547616863     
  0.307529080495378     
  4.022261030669203E-002
  0.771019839272271     
  3.371782744751307E-002
  0.340563891590890     
  0.335277126905724     
  0.293706938522358     
  0.298440902725167     
  0.350224783874870     
  0.355461429787717     
  0.774632531432371     
  5.464642314116446E-002
  4.933908195921524E-002
 -4.804036684010909E-002
 -5.566980999034995E-002
  0.279247017804456     
  0.283512746800703     
  0.365318963819797     
  0.370477733422920     
  0.773293024936744     
 -0.324018740301186     
  6.460882365765785E-002
  6.941973419909035E-002
 -0.363969011966920     
  0.268567453322407     
  0.264531286670713     
  0.385539952009465     
  0.380447895315272     
  0.717822144230825     
  0.722241328659543     
  0.253917221877515     
  0.249694014987892     
  8.474748139409258E-002
  7.971824318709286E-002
  0.400632004513848     
  0.395585371696493     
 -0.180895343001063     
 -0.188614017659144     
  0.700956631279763     
  0.705357519569870     
  0.234767881083673     
  0.239301231040046     
 -0.104085615455352     
 -0.111228711965592     
  9.480594765602153E-002
  0.100192527008793     
  0.774512014901015     
  0.410764884310896     
  0.415781526934479     
  0.689087940951358     
  0.684741310716537     
 -0.244315402215383     
 -0.250329482503962     
  0.224469651858668     
  0.219739306421384     
  0.109991784748382     
  0.115686999985690     
  0.426061853627248     
  0.431049748216941     
  0.209417528404663     
  0.204557552730029     
  0.669054414988161     
  0.673363101145987     
  0.131206141386283     
  0.125409008649527     
  0.194122308875133     
  0.189125900915845     
  0.141183586394862     
  0.146805153437341     
  0.173338534721591     
  0.178486748000544     
  0.446495646691491     
  0.441551094885401     
  0.157258825958124     
  0.162602871152728     
  0.653618025999590     
  0.657914107288449     
 -0.372569767160611     
 -0.221829310917926     
 -0.213932261569279     
  0.462073254018160     
  0.457204990862564     
  0.642524821136425     
  0.638219817239939     
  0.477101191608206     
  0.472362379902125     
  0.627020875535767     
  0.622694441850167     
 -0.370039605615272     
  0.491545519225652     
  0.486914567724048     
 -0.359574008823203     
  0.606971472753475     
  0.611314407322180     
 -4.348287439186934E-002
 -3.514628890599986E-002
  0.505894727747610     
  0.501350852551991     
  0.591541870500248     
  0.595869297263656     
  0.520261669176868     
  0.515783325560518     
  0.580854576895844     
  0.576494849447323     
  0.530359692729275     
  0.534794630145523     
  0.565286956231665     
  0.560860106279267     
  0.545222753483940     
  0.549642570604230     
 -0.294615201904653     
 -0.150754953038957     
 -0.158267056236628     
  0.767860975103382     
 -0.265027872862081     
 -0.259977168929446     
 -9.448734604942616E-002
 -8.692769210690908E-002
 -0.293310591669677     
 -2.677889052839835E-002
 -1.798591395477692E-002
 -0.359614354423094     
  0.755092866144127     
 -0.134290366989930     
 -0.141916849558466     
 -0.376000552030905     
 -0.324688030402988     
 -0.340482978272025     
 -0.369971325707583     
  0.773745805591589     
 -0.375821065871225     
 -9.647486597379490E-003
 -7.500741702525563E-004
 -7.936299812171417E-002
 -0.373077870035816     
 -7.139897075012107E-002
  0.749042175263753     
 -0.163078384219622     
 -0.171115129565860     
 -0.194929329994684     
 -0.203363316187087     
 -0.381846527653052     
 -0.308379183128791     
 -0.372404718551409     
 -0.280618703612101     
 -0.277290845364529     
 -0.375843854419561     
 -0.230587949994478     
 -0.239064243047445     
  7.468742888165381E-003
  1.652309170197283E-002
  0.787008613180101     
 -0.122797419368754     
 -0.114926214495578     
 -0.377600746578774     
  0.736437179924738     
 -0.387332083391815     
 -0.358592142846075     
  3.358549385113998E-002
  2.444353382393976E-002
  0.320369354473796     
  0.314413965895813     
  0.333154423672542     
  0.326930684812464     
 -6.226780283366772E-002
  0.308306066315977     
  0.302513519513918     
  4.715184742204825E-002
  0.792612552118385     
 -0.306913816298104     
 -0.340816074961575     
 -5.307809573862613E-002
  0.730357491219551     
  4.072232497851069E-002
  0.348554826839638     
  0.342402216944194     
  0.292999191576283     
  0.288100140137413     
  0.789898808099525     
  6.032852958654636E-002
  0.357692566397814     
  0.363722140718841     
  5.612619490684187E-002
  0.273374243657439     
  0.277250637855139     
  0.378896330004213     
  0.372957528620658     
  7.623601213784836E-002
  7.124833133808904E-002
  0.262498355822151     
  0.258556832593853     
 -0.380291419711104     
 -0.392124278651313     
  0.394063640158282     
  0.388166792933520     
  0.711942097663381     
  0.717914864094801     
  0.248438414322817     
  0.243668226916035     
  0.792787746703318     
  9.193312981069550E-002
  8.627887388969460E-002
  0.409234063544009     
  0.403340219639631     
  0.228698798377366     
  0.233810897110783     
  0.791885520493856     
  0.694649660178037     
  0.700422868330648     
  0.101372666995706     
  0.107690767616459     
 -0.105836080611276     
  0.218814905480412     
  0.213600095776687     
 -9.775966053126416E-002
  0.418595606788858     
  0.424505135884796     
  0.116657689196885     
  0.123421987356696     
  0.678657443188226     
  0.684296419346269     
  0.203595708697950     
  0.198282673013188     
 -0.146230320143699     
 -0.154578777564228     
  0.139114837287699     
  0.132416139934418     
  0.188024085208923     
  0.182495117089911     
  0.154987480991937     
  0.148974107777383     
  0.434109432261120     
  0.440024201356355     
  0.171584539717773     
  0.165926308823681     
 -0.323232480797158     
  0.663133825741906     
  0.668697035162271     
  0.772093166604374     
  0.455997928054467     
  0.450102834722109     
  0.647759945227868     
  0.653287399207576     
  0.472765059866345     
  0.466960243717612     
  0.637772677607651     
  0.632250902464363     
  0.486293872899073     
  0.480785855030712     
 -0.210701275738395     
 -0.219911826200257     
  0.621865223335644     
  0.616333777783317     
 -0.251179765184295     
 -0.258306077415016     
  0.495087101610541     
  0.500667453929564     
  0.599498273234075     
  0.605015094599954     
  0.514426081013621     
  0.509080069054939     
  0.585009185932643     
  0.590298611027591     
  0.528818761312164     
  0.523338896643464     
  0.570671043255352     
  0.576211733480765     
  0.537719671530738     
  0.543022061610759     
  0.552371044985672     
  0.557911032535100     
 -0.175609286939031     
 -0.184340032280552     
 -0.387149804454875     
 -4.039672924477686E-002
 -2.992637980518509E-002
  0.783578278801885     
 -0.294300978609341     
 -0.378276043673361     
  0.764059107384547     
 -8.807812954850380E-002
 -7.916595495625188E-002
 -0.378280560952184     
  0.791583973437431     
 -0.358579795302456     
 -0.321303971041405     
 -0.291189829570687     
 -2.182041155482588E-002
 -0.393881174074651     
 -1.124429555370339E-002
  0.752313687488741     
 -0.127245924947872     
 -0.135845453996378     
 -0.388908183635216     
 -0.385802487810914     
 -0.340382754572107     
 -0.396156772581204     
 -0.391055577367855     
  6.676384819664802E-003
 -3.554780496312588E-003
 -0.401060551437863     
  0.744316014818619     
  0.803243725467407     
 -0.394689794190218     
 -0.229504947645905     
 -0.239667134017882     
 -0.304911830213211     
 -0.158947417102819     
 -0.167796769091142     
 -0.189061657674982     
 -0.198623506505828     
 -0.397111526077540     
 -0.112693083645157     
 -0.103771986950875     
 -0.282756832446164     
 -0.277332287391763     
  1.422619401764896E-002
 -0.399478267531766     
  2.563323019704973E-002
  0.790214935275354     
 -0.407511630432782     
  0.731966128624766     
  0.811363199350536     
  4.681547006181015E-002
  3.258075881120847E-002
  0.806862035202438     
  0.321438814228404     
  0.314044279594521     
  0.341621105371990     
  0.334370529963014     
  0.303891183426746     
  0.297283433430478     
 -0.359390863733280     
  4.787395616187218E-002
  0.356687188732847     
  0.349855911205509     
  0.724151076556719     
  0.286494498627262     
  0.282492946718506     
 -0.377916014156978     
 -0.337964134544489     
  6.273658482703456E-002
  0.365316865782518     
  0.372133069284374     
  0.267352485496342     
  0.269335619684089     
  6.751021130689491E-002
  0.812018850223079     
  8.328825373279258E-002
  7.781954721917238E-002
  0.257387704903123     
  0.252769330277415     
 -0.300984785799424     
  0.387318357822892     
  0.380709955495713     
  0.809751457080997     
  0.243619948281867     
  0.237578692271967     
  9.253402763488881E-002
  9.925896235249990E-002
  0.402640613611718     
  0.395860322322149     
  0.703935722351995     
  0.711403262831783     
 -0.413058731328450     
  0.222894540007396     
  0.228120742324146     
  0.811513586557827     
  0.780041251782218     
 -5.250175334860695E-002
  0.107821832123169     
  0.115470936279522     
  0.410965745479422     
  0.417667139975826     
  0.687823862611417     
  0.694760139232218     
  0.213366161612188     
  0.207475135221315     
  0.131188222150428     
  0.122818432596057     
 -0.398797874219801     
 -0.246744133147126     
 -0.255936411517686     
  0.197710070325419     
  0.192473480708401     
 -4.049616832308538E-002
  0.146914041638736     
  0.139368290034497     
  0.175831829836660     
  0.182513873199637     
  0.426229042890877     
  0.433167968754770     
  0.162747247914843     
  0.157638151531466     
  0.672646587653683     
  0.679678933188642     
  0.442015833685791     
  0.448833397161386     
  0.657123727053935     
  0.663826498206616     
  0.465712045592406     
  0.458678456384439     
  0.642229334023793     
  0.649130835696099     
 -7.032288092162954E-002
  0.489340427191114     
  0.482533523986553     
  0.632909945669901     
  0.626248910002224     
  0.610291555243798     
  0.617227257941197     
  0.516450674596360     
  0.509768475477955     
  0.586773804755548     
  0.593553771589168     
 -5.936313859584533E-002
 -0.143081142119624     
 -0.152481293576305     
  0.537230648690626     
  0.543918706796444     
  0.562428413889678     
  0.569365096407575     
  0.799646425194785     
  0.770064467347916     
 -0.320950218027443     
  0.809924305763561     
 -0.417909402825683     
 -0.398377030364195     
 -0.403433537356386     
 -3.581368106842356E-002
 -2.177630856496811E-002
 -0.166731351679145     