 TITLE="euler solver on unstructured grid" 
 VARIABLES= "X" "Y"  "P" "Rou" "U"  "V"  "nuT"
 ZONE NODES=        5306  ELEMENTS=       10382  ZONETYPE=FETRIANGLE
 DATAPACKING=BLOCK
 VARLOCATION=([3-7]=CELLCENTERED)
 -0.272758610639892     
 -0.265409579932428     
 -0.257667022460199     
 -0.249858835150385     
 -0.242016130161738     
 -0.234151016010097     
 -0.226269715127213     
 -0.218375927337370     
 -0.207835113963316     
 -0.197281131059775     
 -0.186714545046105     
 -0.176138120863316     
 -0.165554245061297     
 -0.154961928451469     
 -0.144362968975313     
 -0.133759080487394     
 -0.123148769277639     
 -0.112533496939867     
 -0.101914683024438     
 -9.129062360399059E-002
 -8.066261209851268E-002
 -7.003194192799135E-002
 -5.939678303469182E-002
 -4.457881861799773E-002
 -2.975501016067306E-002
 -1.492582014075327E-002
 -9.062783357547365E-005
  1.474827422509014E-002
  2.959150675990650E-002
  4.443885955358471E-002
  5.929008034537815E-002
  7.414491687454015E-002
  8.900320096723960E-002
  0.103865679478513     
  0.118730228046421     
  0.133597677612915     
  0.148467860004164     
  0.163340691133254     
  0.178215960782894     
  0.193093584866170     
  0.207974436368490     
  0.222856475014832     
  0.237740531747147     
  0.252626522478520     
  0.267514405165492     
  0.282404095721149     
  0.297295468015117     
  0.312189521163178     
  0.327084172846852     
  0.341980338095006     
  0.356878016907640     
  0.371777125197838     
  0.386677620922143     
  0.401579504080554     
  0.416483731745397     
  0.431388263641648     
  0.446294098885090     
  0.461201195432266     
  0.476109511239716     
  0.491019088350900     
  0.505929926765817     
  0.520842983556793     
  0.535756260492261     
  0.550670798731462     
  0.565586556230939     
  0.580503617077607     
  0.595421897184550     
  0.610341522682142     
  0.625263450642708     
  0.640185682834682     
  0.655109344504220     
  0.670034393607865     
  0.684960872189074     
  0.699888864334763     
  0.714818370044932     
  0.726357172269374     
  0.715058185928075     
  0.700299965264878     
  0.685540231037202     
  0.670778983245045     
  0.656016305975324     
  0.641252241271496     
  0.626486747090104     
  0.611718950445738     
  0.596950849569964     
  0.582181403303542     
  0.567410737776843     
  0.552638768902954     
  0.537865580768790     
  0.523091131330892     
  0.508314463516936     
  0.493537575558487     
  0.478759426296305     
  0.463980015730390     
  0.449199385904199     
  0.434417494774275     
  0.419634300297160     
  0.404848803357072     
  0.390062960142117     
  0.375275729493056     
  0.360487111409888     
  0.345697063849156     
  0.330905502723944     
  0.316112428034252     
  0.301316756577382     
  0.286520402497984     
  0.271722366680275     
  0.256922522993881     
  0.242120787351888     
  0.227317117710837     
  0.212511429983813     
  0.197702556881202     
  0.182892454591112     
  0.168079997867386     
  0.153265102623109     
  0.138447558640993     
  0.123627281834121     
  0.108804104028663     
  9.397685793500477E-002
  7.914741565433840E-002
  6.431452581013448E-002
  4.947802022856199E-002
  3.463764664887429E-002
  1.979315281032471E-002
  4.944328495624398E-003
 -9.910203802129499E-003
 -2.476874015557564E-002
 -3.963265807161684E-002
 -5.450242002828867E-002
 -6.518239724757542E-002
 -7.586486495807450E-002
 -8.655198956518287E-002
 -9.724306625732200E-002
 -0.107937390222913     
 -0.118637253997727     
 -0.129342078900559     
 -0.140051328293660     
 -0.150767504930090     
 -0.161490324432849     
 -0.172219586511850     
 -0.182958298441648     
 -0.193706848540564     
 -0.204466003518043     
 -0.215240326256575     
 -0.223332390993281     
 -0.231436942636945     
 -0.239557681011853     
 -0.247700828549754     
 -0.255878493766487     
 -0.264121788820806     
  -10.6843510174739     
  -9.68523523456468     
  -8.68611945165541     
  -7.68700366874615     
  -6.68788788583688     
  -5.68877210292762     
  -4.68965632001835     
  -3.69054053710908     
  -2.69142475419982     
  -1.69230897129055     
 -0.693193188381288     
  0.305922594527977     
   1.30503837743724     
   2.30415416034651     
   3.30326994325577     
   4.30238572616504     
   5.30150150907430     
   6.30061729198357     
   7.29973307489283     
   8.29884885780210     
   9.29796464071137     
   9.34000809848551     
   9.38205155625964     
   9.42409501403378     
   9.46613847180792     
   9.50818192958206     
   9.55022538735620     
   9.59226884513034     
   9.63431230290448     
   9.67635576067862     
   9.71839921845276     
   9.76044267622690     
   9.80248613400104     
   9.84452959177518     
   9.88657304954932     
   9.92861650732346     
   9.97065996509760     
   10.0127034228717     
   10.0547468806459     
   10.0967903384200     
   10.1388337961942     
   9.13971801328489     
   8.14060223037563     
   7.14148644746636     
   6.14237066455710     
   5.14325488164783     
   4.14413909873857     
   3.14502331582930     
   2.14590753292004     
   1.14679175001077     
  0.147675967101505     
 -0.851439815807760     
  -1.85055559871703     
  -2.84967138162629     
  -3.84878716453556     
  -4.84790294744482     
  -5.84701873035409     
  -6.84613451326335     
  -7.84525029617262     
  -8.84436607908188     
  -9.84348186199115     
  -9.88552531976529     
  -9.92756877753943     
  -9.96961223531357     
  -10.0116556930877     
  -10.0536991508618     
  -10.0957426086360     
  -10.1377860664101     
  -10.1798295241843     
  -10.2218729819584     
  -10.2639164397325     
  -10.3059598975067     
  -10.3480033552808     
  -10.3900468130550     
  -10.4320902708291     
  -10.4741337286032     
  -10.5161771863774     
  -10.5582206441515     
  -10.6002641019257     
  -10.6423075596998     
 -0.223221683983639     
 -0.219678615594186     
 -0.214178411150916     
 -0.210385606853119     
 -0.228466223278162     
 -0.231758837989429     
 -0.220117316778619     
 -0.215948918027164     
 -0.200278163478527     
 -0.204320808971890     
 -0.237535155225995     
 -0.240544634888616     
 -0.228582669632611     
 -0.224680757587564     
 -0.211156036494699     
 -0.206686282635385     
 -0.249623931177608     
 -0.246916028240903     
 -0.189845038842698     
 -0.194112779980554     
 -0.237731952165783     
 -0.234113594585392     
 -0.275403447453488     
 -0.275398327632941     
 -0.256263988725079     
 -0.258743149281284     
 -0.218159754231303     
 -0.213351408771595     
 -0.201322163521537     
 -0.196567033167510     
 -0.225318988463942     
 -0.220880567193453     
 -0.282401390588977     
 -0.282244881814439     
 -0.179393518275468     
 -0.183856211360231     
 -0.267493485179849     
 -0.265297597206205     
 -0.283252438643442     
 -0.282414908899742     
 -0.244696926091070     
 -0.247930617439531     
 -0.289309493523847     
 -0.208757550146514     
 -0.203561275274039     
 -0.274435806572801     
 -0.274115357542434     
 -0.169071700105433     
 -0.173716809239631     
 -0.291345346635640     
 -0.191148404784222     
 -0.186158454547949     
 -0.233253769700557     
 -0.228962172886839     
 -0.291091377268428     
 -0.226381740015042     
 -0.221425418571194     
 -0.158709714559640     
 -0.163543868187713     
 -0.255712861146860     
 -0.258591532164220     
 -0.291725679691607     
 -0.217109526228285     
 -0.211568605781871     
 -0.292345412012485     
 -0.198366830240711     
 -0.192854297084758     
 -0.148035421537099     
 -0.153054045156240     
 -0.181280253428747     
 -0.176104889099273     
 -0.283469349018953     
 -0.266041716385871     
 -0.269162300871555     
 -0.244219839192210     
 -0.240300668481987     
 -0.299347275556205     
 -0.279796709078955     
 -0.137055609480854     
 -0.142234269885774     
 -0.301349339529333     
 -0.301261384176637     
 -0.274995432580411     
 -0.206323101829872     
 -0.200311312620005     
 -0.171908475005157     
 -0.166513729668971     
 -0.131258233369813     
 -0.125948267744300     
 -0.227148056342648     
 -0.221419298843074     
 -0.187894628664033     
 -0.182175564279041     
 -0.292188795554087     
 -0.237153408940371     
 -0.232324484904811     
 -0.114864709171702     
 -0.120279756928539     
 -0.256762484919783     
 -0.253554552045228     
 -0.156387064141222     
 -0.162054435080291     
 -0.303034533663051     
 -0.292492770984617     
 -0.302386172064782     
 -0.103891228226621     
 -0.109398211241275     
 -0.215744681238659     
 -0.209304832989909     
 -0.188334247005750     
 -0.194663569518359     
 -0.145254856436139     
 -0.151161629711965     
 -0.301876976559208     
 -0.179112574542587     
 -0.173314787763735     
 -9.296682775063296E-002
 -9.856253892340690E-002
 -0.283468059701913     
 -0.311422329183590     
 -0.269210914870222     
 -0.266741994799860     
 -0.309422109535366     
 -0.311264385226524     
 -0.305379948016706     
 -0.133722387131712     
 -0.139813367508274     
 -0.281014928202756     
 -8.227532455384405E-002
 -8.793861888591201E-002
 -0.312511268146155     
 -0.313910072481796     
 -0.165502471096337     
 -0.171710236360720     
 -7.181683202791120E-002
 -7.759645043901936E-002
 -0.196218988311839     
 -0.203170235556597     
 -0.315771091544071     
 -0.122094688318780     
 -0.128327019263331     
 -0.277159773066487     
 -0.252337289242506     
 -0.248094229067747     
 -0.226916832897350     
 -0.220157710986557     
 -0.182724037700093     
 -0.176280849728796     
 -0.289408708514408     
 -6.063848953666730E-002
 -6.660267813081980E-002
 -0.239409671917651     
 -0.233689398015105     
 -0.117035354414161     
 -0.110712907761646     
 -0.154325320561190     
 -0.160928169304747     
 -0.293807640046254     
 -5.386410735968805E-002
 -4.772299810028807E-002
 -0.319448141152577     
 -0.313734014390354     
 -9.966129321764469E-002
 -0.106095174002734     
 -0.322362971853928     
 -0.213640753417054     
 -0.206121166162364     
 -0.142034733404991     
 -0.148881136332641     
 -3.975249053908513E-002
 -3.345296172129903E-002
 -0.299406343616456     
 -0.182153891825177     
 -0.189400332168353     
 -0.324536212163586     
 -0.268124709237539     
 -0.265704973168805     
 -8.822181602925909E-002
 -9.477895432252732E-002
 -0.307485643914193     
 -2.510236782728192E-002
 -1.867414154480910E-002
 -0.325459019281507     
 -0.137031932833134     
 -0.129990624791036     
 -7.827741969117070E-002
 -8.478897971350843E-002
 -0.330699121427051     
 -0.281441237062498     
 -0.327214162008090     
 -0.173489428793031     
 -0.166208845448583     
 -0.282176891434709     
 -1.011728030558715E-002
 -3.609009065209815E-003
 -6.871496009599533E-002
 -7.561199004967140E-002
 -0.124575962106368     
 -0.117385768378767     
 -0.199113485718611     
 -0.191072822001767     
  5.054323508530500E-003
  1.157237429860332E-002
 -0.312449836093187     
 -0.232576471673047     
 -0.239562525418557     
 -0.225805052290155     
 -0.217797024863711     
 -5.595143415627916E-002
 -6.318446184578025E-002
 -0.253140107124232     
 -0.247509403235355     
 -0.322206223173032     
  2.671162995107836E-002
  2.028003800013034E-002
  0.319870025402295     
  0.324838209734514     
 -0.106446969270523     
 -0.113586769699694     
  0.334576224518708     
  0.339492576440058     
  0.305255785870920     
  0.310243303908073     
  3.546946859153482E-002
  4.171285159580133E-002
  0.725309886847497     
  0.726952200001892     
 -0.150596746440631     
 -0.158247883527647     
 -0.294809476100106     
 -4.222638190988612E-002
 -4.975090625974771E-002
  0.349410506366473     
  0.354247821431094     
  0.290626135546545     
  0.295605202295841     
 -0.334875548860418     
  5.057722663730928E-002
  5.660054151246860E-002
  0.369073877161153     
  0.364332367283018     
 -0.327264547915250     
  0.275908216232616     
  0.280876073060560     
  0.383935930372091     
  0.379296463236462     
  7.148423251363491E-002
  6.560380492090376E-002
  0.710396271266716     
  0.712337004273969     
  0.261104366304641     
  0.266100690077333     
  0.398820582051356     
  0.394283805304072     
  0.695043910787764     
  0.697164594187154     
  0.246242183898471     
  0.251325873570340     
  8.058071237700835E-002
  8.643176642867416E-002
  0.413728789037808     
  0.409294828226577     
  0.231337010142078     
  0.236543419228707     
  0.679718141683418     
  0.681974705057567     
  9.554922656014364E-002
  0.101435417832078     
  0.428664557429457     
  0.424336698192634     
  0.216388589563091     
  0.221719207511343     
  0.664495217215330     
  0.666873541027206     
  0.110548688398802     
  0.116470228858281     
  0.201384204953367     
  0.206828347062960     
  0.443618265758573     
  0.439404049933226     
  0.125612044013536     
  0.131527135524432     
  0.649348441312288     
  0.651847238796630     
  0.186307860592037     
  0.191858573459712     
  0.140753461871039     
  0.146609126535723     
  0.171155168837213     
  0.176811184267068     
  0.458544529409466     
  0.454455033635881     
  0.155952171575277     
  0.161713291084089     
  0.634230184296820     
  0.636851218824498     
  0.473381586501698     
  0.469425714999574     
  0.619107969475452     
  0.621851611085769     
 -9.580506650598074E-002
 -0.103277421209965     
 -0.337734991373673     
  0.484295921169179     
  0.488116823068054     
 -0.263488135102341     
 -0.267323412610215     
  0.603987497531005     
  0.606850996931024     
  0.502796432710591     
  0.499106094494054     
  0.591878451388802     
  0.588896922740290     
  0.517478728930080     
  0.513912394916075     
  0.576928202653594     
  0.573826806115563     
  0.532214115862153     
  0.528765478364691     
  0.561972063514214     
  0.558750958736065     
  0.543710202219258     
  0.547045803483011     
 -2.776334800499988E-002
 -3.555336835020224E-002
 -0.335104367885776     
 -0.326699190201178     
 -0.296570726705307     
 -0.146104955504394     
 -0.138368635401719     
 -0.174809827638546     
 -0.183138826349714     
 -0.210924342061154     
 -0.202154345769275     
 -0.338045106188692     
 -0.342153456324018     
 -8.043101197786581E-002
 -8.809638974205518E-002
 -1.261350509753511E-002
 -2.060538353647516E-002
 -0.341326471692200     
 -0.309009964451339     
  0.740516036425751     
  0.741547480304663     
 -0.347110339111743     
 -0.341251467269640     
 -0.134516259118998     
 -0.126404266305187     
 -5.130645139352562E-003
 -0.281469569444684     
  2.953086047863928E-003
 -0.341898313147124     
  0.741277181313339     
 -0.280064878523808     
 -0.159819800179199     
 -0.168206766347749     
 -0.351449392764035     
 -6.527775627316357E-002
 -7.352023790167640E-002
  1.054075977475682E-002
  1.856775591164943E-002
 -0.310750190637482     
 -0.108747418781714     
 -0.117013414248249     
  0.738140429346221     
 -0.230642500241704     
 -0.239059963698001     
 -5.124498249059323E-002
 -5.989837994546263E-002
 -0.324100165524979     
 -0.184975660597850     
 -0.194268450482902     
  3.391399343254109E-002
  0.318941925422851     
  0.312890339020101     
  0.333300990059019     
  0.327218336372369     
  2.618525817286786E-002
  0.298664044409187     
  0.304615457775911     
  0.341881183787032     
  0.347931492148616     
  4.886441485614711E-002
  4.166060644750990E-002
 -0.224524121335967     
 -0.215103294255468     
 -0.252825468172458     
 -0.245617429982845     
  0.284237735574440     
  0.290031398812373     
  0.356796105663341     
  0.362768511527414     
  5.692580698136499E-002
  6.368052755980065E-002
  0.757536508151506     
  0.275250225923196     
  0.269577497588915     
  0.377690795071595     
  0.371812448713528     
 -0.348340916283882     
  0.756901943755163     
  0.721769459559400     
  0.725298254690968     
  7.203816557414029E-002
  7.866410701833838E-002
  0.260481784312860     
  0.254777546429411     
  0.392654955988969     
  0.386869265297460     
  0.705642001573169     
  0.709373176595122     
  0.239890794181684     
  0.245761152582210     
  0.401957863515891     
  0.407656947423117     
 -3.734900745623559E-002
 -4.641338712802349E-002
  9.381854169701624E-002
  8.708839247864894E-002
  0.693560952615340     
  0.689723395057244     
  0.230990469414045     
  0.224928682677459     
  0.417100409374188     
  0.422714659736340     
  0.109049292702530     
  0.102161181297420     
  0.678006645668245     
  0.674095397517177     
  0.216095979742250     
  0.209873705609548     
  0.124320101592235     
  0.117336074785603     
  0.437844576061289     
  0.432322731796747     
 -0.295401618633636     
  0.658691713793070     
  0.662676533059476     
  0.201050678710660     
  0.194686304182737     
  0.132678503991316     
  0.139633980370821     
 -0.142869546421827     
 -0.151854383516200     
  0.185830577087489     
  0.179323976969816     
  0.148195509908688     
  0.155017238425425     
  0.453013637927396     
  0.447602885215020     
  0.170451900722176     
  0.163793534952083     
  0.643389499240633     
  0.647457017486547     
  0.462779246914756     
  0.468052688024707     
  0.632242264676141     
  0.628084285414270     
 -0.353561654262854     
  0.477691553525320     
  0.482817582151975     
  0.616977644191260     
  0.612729421607545     
  0.497392077688518     
  0.492402127796265     
  0.597408704088485     
  0.601737751031331     
 -0.267156698043415     
 -0.261522007007748     
  0.511924741691607     
  0.507054997435333     
  0.582210022460815     
  0.586623113004621     
  0.521751938239107     
  0.526518124958233     
  0.571499942786931     
  0.566986838378848     
  0.536593922273735     
  0.541273167320565     
  0.556301041050557     
  0.551697949093281     
  0.755076466629169     
 -0.341993428005615     
 -0.355053101940184     
 -0.294369315429119     
 -3.187026722521949E-002
 -2.239668447119347E-002
 -0.100196203833972     
 -9.142966206497488E-002
 -0.325509544001004     
 -0.358936282885784     
 -0.340300580438885     
 -0.164644255956472     
 -0.174257268352164     
 -0.208018652997646     
 -0.197845899760208     
 -0.353326302063427     
 -1.604055561340762E-002
 -6.326966988405440E-003
  0.756999049943773     
  0.752094318236664     
 -0.309795964359336     
 -0.364218865276605     
 -8.465657974737911E-002
 -7.543306892365434E-002
 -0.356078692572263     
  2.012231811437401E-004
 -0.277931423059271     
 -0.130555630323200     
 -0.121145114158670     
  9.990464221398021E-003
 -0.357703009613099     
 -0.358131550914355     
 -0.281482197498862     
  0.739644814939756     
 -0.369081091406387     
 -6.984763636604614E-002
 -6.003610816600474E-002
 -0.239838678110331     
 -0.229876834886518     
  2.612856657666435E-002
  1.647690044638862E-002
 -0.308646923711584     
 -0.341253221619449     
  0.734351182736924     
 -0.357832595556185     
  0.327123660661445     
  0.319919141877851     
  0.313469565582709     
  0.306409436994567     
  4.136509703115709E-002
  0.770332273112609     
  3.251772226882661E-002
  0.341412526123259     
  0.334154171584873     
  0.292572980421070     
  0.299344646926377     
  0.349100759120011     
  0.356297566654592     
  0.774611176391285     
  5.578319126073061E-002
  4.813652885766655E-002
 -4.678876881352147E-002
 -5.687761985863911E-002
  0.278098978665086     
  0.284443262545514     
  0.364198453374710     
  0.371297754079176     
  0.772827011962003     
 -0.324971319131964     
  6.340356972765060E-002
  7.055977262209998E-002
 -0.363785075129050     
  0.269517428316580     
  0.263370440690248     
  0.386341379972296     
  0.379333860428477     
  0.716977305322183     
  0.722462042608079     
  0.254885059676036     
  0.248521261324894     
  8.588613492738321E-002
  7.850913824512047E-002
  0.401413701859316     
  0.394478933330062     
 -0.179333737198892     
 -0.190020073375393     
  0.700087628626714     
  0.705623597090888     
  0.233583623658688     
  0.240289520162692     
 -0.102736850206336     
 -0.112485430068753     
  9.359170047073469E-002
  0.101325673280468     
  0.774267365297472     
  0.409666303982543     
  0.416542915652443     
  0.689389252060517     
  0.683855731698089     
 -0.242850495152554     
 -0.251574253741842     
  0.225479296244866     
  0.218543554610285     
  0.108771166882361     
  0.116811576150160     
  0.424971640603963     
  0.431789914451051     
  0.210448859325587     
  0.203350055712786     
  0.668153913168273     
  0.673696137272582     
  0.132320580899226     
  0.124181185595850     
  0.195175459462354     
  0.187906497638042     
  0.139949082970366     
  0.147908688814848     
  0.172108152907257     
  0.179561009586354     
  0.447212621860214     
  0.440470815791061     
  0.156022387913506     
  0.163694055644193     
  0.652702359769783     
  0.658277971380943     
 -0.373317123396829     
 -0.223287234939507     
 -0.212286372712162     
  0.462762805519376     
  0.456138609843501     
  0.642919317403222     
  0.637288527633941     
  0.477756417213532     
  0.471317204582600     
  0.627445456148921     
  0.621747755881871     
 -0.370026235108580     
  0.492171570188043     
  0.485886021027584     
 -0.358512343689565     
  0.606011800236314     
  0.611766530494240     
 -4.475535127899775E-002
 -3.384348172947305E-002
  0.506495529121624     
  0.500335162200623     
  0.590575989256302     
  0.596341693406357     
  0.520840363797325     
  0.514777353180038     
  0.581351971130170     
  0.575517387339950     
  0.529360635772204     
  0.535353878008058     
  0.565813610907465     
  0.559867101344685     
  0.544227516996739     
  0.550185128967576     
 -0.295587570268980     
 -0.149262825105554     
 -0.159629718566006     
  0.766949603655637     
 -0.266217946980444     
 -0.258548940010075     
 -9.578232847045615E-002
 -8.555361186206557E-002
 -0.292063704553990     
 -2.809533283210167E-002
 -1.665998622170528E-002
 -0.358325875576344     
  0.755389044863060     
 -0.132791508395959     
 -0.143299448536229     
 -0.376171255171101     
 -0.323408749569685     
 -0.341525216495632     
 -0.369472692759607     
  0.773951583858126     
 -0.376797897854420     
 -1.099286736112279E-002
  5.844856403170061E-004
 -8.067513884141007E-002
 -0.372362240432871     
 -7.002017360743060E-002
  0.748071187774630     
 -0.161470953766390     
 -0.172582709699450     
 -0.193217845587640     
 -0.204906227919122     
 -0.382213255313808     
 -0.309439104106076     
 -0.372088324520107     
 -0.281702543892302     
 -0.275950022271570     
 -0.374915196630446     
 -0.228820916035282     
 -0.240624401659846     
  6.106201887379510E-003
  1.785533052738799E-002
  0.786167046568640     
 -0.124214510438989     
 -0.113407608582008     
 -0.376442965420075     
  0.736806518863166     
 -0.387910588731553     
 -0.359724801670817     
  3.489921056897231E-002
  2.307281426061356E-002
  0.321361461218853     
  0.313170562102580     
  0.334165675457187     
  0.325653952267577     
 -6.367489436947457E-002
  0.309345530715737     
  0.301239187546376     
  4.842480619533908E-002
  0.792713424072326     
 -0.305551835656451     
 -0.339414062019865     
 -5.161855064696316E-002
  0.729340913392029     
  3.935417774184460E-002
  0.349559718070752     
  0.341116203946259     
  0.294081148550560     
  0.286805498324860     
  0.789290084324217     
  6.163138802007871E-002
  0.356406210934344     
  0.364714424156238     
  5.475809140401521E-002
  0.272063527757590     
  0.278356833430338     
  0.379870831536150     
  0.371677221940879     
  7.754392548909919E-002
  6.987744958899186E-002
  0.263611834882972     
  0.257231903105279     
 -0.380117611623351     
 -0.392930747998670     
  0.395018598810889     
  0.386894466914525     
  0.710897454278526     
  0.718337035756890     
  0.249573779438239     
  0.242329803535816     
  0.792650394512681     
  9.323941185020271E-002
  8.490276691805548E-002
  0.410169704744240     
  0.402075094439896     
  0.227346744405541     
  0.234969620203897     
  0.791511520933142     
  0.693594813146549     
  0.700876870371425     
  9.998912548932912E-002
  0.108989436554795     
 -0.107257235560572     
  0.219997378832231     
  0.212233861477834     
 -9.624973508364737E-002
  0.417336910661931     
  0.425421564351222     
  0.115264281029050     
  0.124710424242574     
  0.677591647694826     
  0.684779878295700     
  0.204802463049119     
  0.196900938450655     
 -0.144570562386592     
 -0.156112645083467     
  0.140393136160991     
  0.131010697467132     
  0.189256559294244     
  0.181096469910673     
  0.156256518753825     
  0.147555524786249     
  0.432857449697358     
  0.440920470312641     
  0.172843448558206     
  0.164509956950219     
 -0.324396850780675     
  0.662054572673141     
  0.669210808256331     
  0.772531824919136     
  0.456871628220679     
  0.448859287040755     
  0.646665147166638     
  0.653832639229988     
  0.473606746843940     
  0.465733742132819     
  0.638350410690036     
  0.631139056517129     
  0.487073810380548     
  0.479608840815340     
 -0.208840405454572     
 -0.221588956608019     
  0.622476010461332     
  0.615204287103203     
 -0.249532305414301     
 -0.259721219486699     
  0.493897107912166     
  0.501447869128462     
  0.598356011126395     
  0.605654596493550     
  0.515156056628736     
  0.507928331592098     
  0.583890259851127     
  0.590928532486856     
  0.529557692557586     
  0.522165700066789     
  0.569504731953394     
  0.576901706418553     
  0.536577486532412     
  0.543717481800473     
  0.551195337788522     
  0.558626830543015     
 -0.173855218566178     
 -0.185943652977697     
 -0.387156956687358     
 -4.186488014630479E-002
 -2.843321386010814E-002
  0.782504315430627     
 -0.295439269131474     
 -0.376875678772038     
  0.762918919141621     
 -8.958157479164873E-002
 -7.758592026952184E-002
 -0.379501697938399     
  0.791924237650762     
 -0.357051664198892     
 -0.319807615891604     
 -0.289770819668755     
 -2.333211323533945E-002
 -0.394073331390731     
 -9.738399946373051E-003
  0.752838389859317     
 -0.125550528378762     
 -0.137429583078207     
 -0.388529903771520     
 -0.385212770483240     
 -0.341655480116263     
 -0.397205843984410     
 -0.390277984424225     
  8.187776903305313E-003
 -5.087087500510776E-003
 -0.401455128637698     
  0.743119642129646     
  0.802240110590591     
 -0.393680131733925     
 -0.227502350870088     
 -0.241466506263387     
 -0.306173229792966     
 -0.157176491774498     
 -0.169431637316825     
 -0.187138074822689     
 -0.200385513367673     
 -0.395855667910393     
 -0.114319990324024     
 -0.102050377573773     
 -0.284068101281277     
 -0.275753916504826     
  1.268038378748342E-002
 -0.400784826471957     
  2.714085989438544E-002
  0.790796347476826     
 -0.408133180284631     
  0.732557802638235     
  0.811596303757065     
  4.828089097558207E-002
  3.103155814673727E-002
  0.806097033055237     
  0.322613288256502     
  0.312619991661239     
  0.342806183847977     
  0.332909957697126     
  0.305095902264716     
  0.295859692017948     
 -0.360769523633733     
  4.635965180327445E-002
  0.357837690934934     
  0.348416611140255     
  0.722915642309334     
  0.287795682360603     
  0.281022243555669     
 -0.376260762687493     
 -0.336325601608164     
  6.119289590110000E-002
  0.363854834333337     
  0.373295448074112     
  0.265893628639404     
  0.270589744971038     
  6.899988982872114E-002
  0.812001244601607     
  8.475382998752308E-002
  7.630024370278780E-002
  0.258649244807344     
  0.251267457082050     
 -0.299420768510647     
  0.388429279023222     
  0.379289063581267     
  0.809231921352990     
  0.244936529232633     
  0.236089866106932     
  9.097816517183398E-002
  0.100748286969998     
  0.403761440123994     
  0.394418547853310     
  0.702688746240373     
  0.712032673361341     
 -0.413922045468677     
  0.221361247399593     
  0.229435112962588     
  0.811244103775255     
  0.778731342285558     
 -5.411551365551785E-002
  0.106284531400982     
  0.116916740977495     
  0.409557852012257     
  0.418741244620938     
  0.686607110475755     
  0.695379934156703     
  0.214734729975679     
  0.205953259856020     
  0.132652553155468     
  0.121236472949144     
 -0.398638523217841     
 -0.244865734095762     
 -0.257587065612264     
  0.199077319441066     
  0.190901607740349     
 -3.883274289846197E-002
  0.148339448016920     
  0.137795796287729     
  0.174264272042396     
  0.183943274957245     
  0.424795346009260     
  0.434254839837070     
  0.164199385069433     
  0.155995973469118     
  0.671389203225981     
  0.680355981716323     
  0.440614663317736     
  0.449873062968838     
  0.655882927336754     
  0.664504692328528     
  0.466766627856092     
  0.457247359728736     
  0.640940082843849     
  0.649872440580400     
 -7.199727971914616E-002
  0.490334456374625     
  0.481141136822308     
  0.633657890158817     
  0.624970133079608     
  0.608954746892893     
  0.618048391360722     
  0.517399831371834     
  0.508396578511113     
  0.585432033143928     
  0.594402753236422     
 -5.761753453642854E-002
 -0.141196059517120     
 -0.154243520356548     
  0.535864406331856     
  0.544837689769921     
  0.561038746907997     
  0.570284466821406     
  0.798408990660921     
  0.770745662261722     
 -0.322345027603604     
  0.810403422712234     
 -0.419027471091041     
 -0.396863107798057     
 -0.403458250003700     
 -3.749519580813184E-002
 -2.008110380247901E-002
 -0.164790368170692     