 TITLE="euler solver on unstructured grid" 
 VARIABLES= "X" "Y"  "P" "Rou" "U"  "V"  "nuT"
 ZONE NODES=        5306  ELEMENTS=       10382  ZONETYPE=FETRIANGLE
 DATAPACKING=BLOCK
 VARLOCATION=([3-7]=CELLCENTERED)
 -0.272999893075967     
 -0.265013571276727     
 -0.257018891781880     
 -0.249022818444849     
 -0.241026012023620     
 -0.233028729678058     
 -0.225031103559760     
 -0.217033212245351     
 -0.206368696126028     
 -0.195704879093548     
 -0.185039815616596     
 -0.174374543197254     
 -0.163710091301357     
 -0.153044481359692     
 -0.142378730337268     
 -0.131713853413261     
 -0.121047861303464     
 -0.110381763829555     
 -9.971656992029891E-002
 -8.905028582690505E-002
 -7.838391779938862E-002
 -6.771847208776439E-002
 -5.705195226449442E-002
 -4.219550822361126E-002
 -2.733894006737670E-002
 -1.248225761786886E-002
  2.375531088267793E-003
  1.723241980141722E-002
  3.208940048493498E-002
  4.694646867424007E-002
  6.180361901183531E-002
  7.666084614022353E-002
  9.151814648773988E-002
  0.106376514696489     
  0.121233948088518     
  0.136091443091766     
  0.150948996134566     
  0.165806605431087     
  0.180664266516747     
  0.195521977605714     
  0.210380736018841     
  0.225238540864009     
  0.240096388569154     
  0.254954277348445     
  0.269812206308964     
  0.284670173664880     
  0.299528176737444     
  0.314387215526256     
  0.329245288246284     
  0.344103393111294     
  0.358961530121287     
  0.373819697490431     
  0.388677894325810     
  0.403536120627423     
  0.418395375501955     
  0.433253658057289     
  0.448111968293024     
  0.462970305316246     
  0.477828668234037     
  0.492687057939314     
  0.507545474432077     
  0.522404916819011     
  0.537263385100914     
  0.552121880170302     
  0.566980401134261     
  0.581838949778621     
  0.596697524317551     
  0.611556127429799     
  0.626415758222051     
  0.641274416695103     
  0.656133105527307     
  0.670991823825744     
  0.685850572483333     
  0.700709353285904     
  0.715568166233459     
  0.726999708274286     
  0.715573259427449     
  0.700718084220482     
  0.685862876868532     
  0.671007637371599     
  0.656152367515516     
  0.641297068193197     
  0.626441738511728     
  0.611585381150256     
  0.596729996107983     
  0.581874582492392     
  0.567019142982230     
  0.552163675791667     
  0.537308182706534     
  0.522452662833915     
  0.507596117067125     
  0.492740545405367     
  0.477884946956123     
  0.463029321719393     
  0.448173670588093     
  0.433317992669307     
  0.418462287070119     
  0.403605553790927     
  0.388749791938019     
  0.373894000618876     
  0.359038179833499     
  0.344182328688971     
  0.329326445399459     
  0.314470529964965     
  0.299613580600054     
  0.284757595518096     
  0.269901574719491     
  0.255045515525489     
  0.240189416150258     
  0.225333275700881     
  0.210477092391528     
  0.195619862650931     
  0.180763585585377     
  0.165907258516515     
  0.151050879658514     
  0.136194444546793     
  0.121337951395519     
  0.106481396633028     
  9.162377668805231E-002
  7.676708888104736E-002
  6.191032785491414E-002
  4.705349003798796E-002
  3.219657007277162E-002
  1.733956260176795E-002
  2.482463160395949E-003
 -1.237573628719148E-002
 -2.723304199220506E-002
 -4.209046199049188E-002
 -5.694800610413015E-002
 -6.761547777606648E-002
 -7.828202356044582E-002
 -8.894964702813571E-002
 -9.961735442994814E-002
 -0.110284152016695     
 -0.120952046037993     
 -0.131620045423402     
 -0.142287159995399     
 -0.152955400468181     
 -0.163623782021722     
 -0.174291321621829     
 -0.184960040697693     
 -0.195628968715948     
 -0.206297143179471     
 -0.216966618555354     
 -0.224968720862549     
 -0.232971088365855     
 -0.240973799641897     
 -0.248976986842272     
 -0.256980907126845     
 -0.264986221253603     
  -10.2819250685519     
  -9.28192546720160     
  -8.28192586585135     
  -7.28192626450110     
  -6.28192666315084     
  -5.28192706180059     
  -4.28192746045034     
  -3.28192785910008     
  -2.28192825774983     
  -1.28192865639958     
 -0.281929055049326     
  0.718070546300927     
   1.71807014765118     
   2.71806974900143     
   3.71806935035169     
   4.71806895170194     
   5.71806855305219     
   6.71806815440244     
   7.71806775575270     
   8.71806735710295     
   9.71806695845320     
   9.71895987465054     
   9.71985279084787     
   9.72074570704521     
   9.72163862324255     
   9.72253153943988     
   9.72342445563722     
   9.72431737183455     
   9.72521028803189     
   9.72610320422923     
   9.72699612042656     
   9.72788903662390     
   9.72878195282123     
   9.72967486901857     
   9.73056778521590     
   9.73146070141324     
   9.73235361761058     
   9.73324653380791     
   9.73413945000525     
   9.73503236620258     
   9.73592528239992     
   8.73592568104967     
   7.73592607969941     
   6.73592647834916     
   5.73592687699891     
   4.73592727564866     
   3.73592767429840     
   2.73592807294815     
   1.73592847159790     
  0.735928870247645     
 -0.264070731102608     
  -1.26407033245286     
  -2.26406993380311     
  -3.26406953515337     
  -4.26406913650362     
  -5.26406873785387     
  -6.26406833920413     
  -7.26406794055438     
  -8.26406754190463     
  -9.26406714325488     
  -10.2640667446051     
  -10.2649596608025     
  -10.2658525769998     
  -10.2667454931971     
  -10.2676384093945     
  -10.2685313255918     
  -10.2694242417892     
  -10.2703171579865     
  -10.2712100741838     
  -10.2721029903812     
  -10.2729959065785     
  -10.2738888227758     
  -10.2747817389732     
  -10.2756746551705     
  -10.2765675713678     
  -10.2774604875652     
  -10.2783534037625     
  -10.2792463199598     
  -10.2801392361572     
  -10.2810321523545     
 -0.221608076086367     
 -0.221684441723478     
 -0.212455770059238     
 -0.212484744262341     
 -0.230387245262643     
 -0.230244288850835     
 -0.218143428518981     
 -0.218310264158164     
 -0.202475818633111     
 -0.202482199100614     
 -0.239358532463658     
 -0.239141341851185     
 -0.226696388208065     
 -0.226968523323826     
 -0.209058833646277     
 -0.209155452640382     
 -0.248367723597513     
 -0.248605511393167     
 -0.192132084757244     
 -0.192166540765887     
 -0.235911336415768     
 -0.236349426367506     
 -0.276080006134313     
 -0.275175700023965     
 -0.257772705868479     
 -0.257683924343256     
 -0.215825895763170     
 -0.216070656227850     
 -0.199103188938908     
 -0.199140501469486     
 -0.223135372998811     
 -0.223461300544546     
 -0.282813569197401     
 -0.282251655273834     
 -0.181758303142282     
 -0.181813832429295     
 -0.266686911293807     
 -0.266583505903253     
 -0.284064026159587     
 -0.282000000357620     
 -0.246837881979497     
 -0.246216910201971     
 -0.289503528193207     
 -0.206269462819023     
 -0.206418383614381     
 -0.275488043416461     
 -0.273565079262015     
 -0.171511385498863     
 -0.171581359754780     
 -0.291886833798096     
 -0.188826332992933     
 -0.188816668753132     
 -0.231047806494022     
 -0.231578285303705     
 -0.290921550030032     
 -0.223870300055052     
 -0.224337820342408     
 -0.161229944736014     
 -0.161309708711117     
 -0.257681915597108     
 -0.257058493579405     
 -0.291083306540829     
 -0.214370069248672     
 -0.214693919402975     
 -0.293315950914349     
 -0.195753385393103     
 -0.195817972226429     
 -0.150634729903539     
 -0.150722131005902     
 -0.178872896624867     
 -0.178830518427611     
 -0.284683404885987     
 -0.267768658456295     
 -0.267888276759133     
 -0.242024873991144     
 -0.242920908736912     
 -0.299525851822200     
 -0.278885804186194     
 -0.139721480661939     
 -0.139816587249020     
 -0.301007961805338     
 -0.301941318531400     
 -0.276453946017521     
 -0.203408660285648     
 -0.203592234482700     
 -0.169392671709341     
 -0.169330952605971     
 -0.128769521027096     
 -0.128665753105681     
 -0.224183928530401     
 -0.224790180572170     
 -0.185199656222439     
 -0.185201521444498     
 -0.293602833106496     
 -0.234522394655532     
 -0.235375911023306     
 -0.117619731190891     
 -0.117734148351550     
 -0.254692597883887     
 -0.256057108954685     
 -0.159325338103608     
 -0.159399992308897     
 -0.302194504018030     
 -0.291316397844144     
 -0.303545056220511     
 -0.106675589068879     
 -0.106804095622041     
 -0.212532981642605     
 -0.212903318717106     
 -0.191708486480983     
 -0.191634036470020     
 -0.148296586176072     
 -0.148384350792137     
 -0.303555677251542     
 -0.176388815390197     
 -0.176353381102990     
 -9.577653443471623E-002
 -9.592395617043646E-002
 -0.285041806902851     
 -0.311368418791201     
 -0.267389054534140     
 -0.268982928481723     
 -0.309820573931749     
 -0.310744028194872     
 -0.303991243114035     
 -0.136838947317435     
 -0.136941194940633     
 -0.279504719716186     
 -8.509863865818854E-002
 -8.526756071975232E-002
 -0.313340591107382     
 -0.315287338203441     
 -0.168733267514254     
 -0.168781128263329     
 -7.467342087785935E-002
 -7.487358956769054E-002
 -0.199970945777383     
 -0.199781092412478     
 -0.314801746694933     
 -0.125262908985725     
 -0.125383036065789     
 -0.279054039712354     
 -0.249615938252457     
 -0.251260712759276     
 -0.223417233000988     
 -0.224070116862217     
 -0.179663876270868     
 -0.179663282505604     
 -0.291292594774772     
 -6.355295619542642E-002
 -6.380187291911656E-002
 -0.236232086461662     
 -0.237300796682113     
 -0.114047769293791     
 -0.113904978196781     
 -0.157734490555933     
 -0.157801410768874     
 -0.292043857331689     
 -5.099178418419138E-002
 -5.068498347236311E-002
 -0.317871482066170     
 -0.315706530123927     
 -0.102883321193965     
 -0.103058527481460     
 -0.322720406454213     
 -0.209894334623826     
 -0.210254170783834     
 -0.145543892041520     
 -0.145632917743955     
 -3.681601008847017E-002
 -3.645152255770805E-002
 -0.301667209750779     
 -0.185978212840401     
 -0.185912180298705     
 -0.324140182067099     
 -0.265696284207504     
 -0.268575264788681     
 -9.147238756216401E-002
 -9.169386519241703E-002
 -0.305482699122437     
 -2.210945833536599E-002
 -2.169936695276288E-002
 -0.326460893412459     
 -0.133687677272188     
 -0.133575034456848     
 -8.147994249512662E-002
 -8.173392642830267E-002
 -0.329607478398798     
 -0.279330056546076     
 -0.328833147650288     
 -0.170011362852714     
 -0.169992886661420     
 -0.284653019415286     
 -7.077884732776594E-003
 -6.649356214984891E-003
 -7.205840773197339E-002
 -7.239946795419758E-002
 -0.121163325829904     
 -0.121016983040232     
 -0.195188336618498     
 -0.195354955149810     
  8.128545156448777E-003
  8.529484007011286E-003
 -0.315069770245848     
 -0.236813120616082     
 -0.235772271725322     
 -0.221715208368753     
 -0.222303885009426     
 -5.939186548245398E-002
 -5.985125106119946E-002
 -0.249694945248175     
 -0.251425843039512     
 -0.319970619504778     
  2.367718520765966E-002
  2.337791816973240E-002
  0.322619888957636     
  0.322650232592228     
 -0.110026302393258     
 -0.110206811029417     
  0.337297485220008     
  0.337361670503178     
  0.308037719259483     
  0.307994477700320     
  3.858179032154629E-002
  3.869314734442678E-002
  0.726556688381520     
  0.727053454212952     
 -0.154531036160070     
 -0.154591835219129     
 -0.292420040049749     
 -4.573581188082846E-002
 -4.632109309505415E-002
  0.352102008933609     
  0.352174401319706     
  0.293445042951281     
  0.293291411226011     
 -0.333107912090897     
  5.369759948186577E-002
  5.359619398945966E-002
  0.367061065763061     
  0.366990218691005     
 -0.329539233298070     
  0.278766218995677     
  0.278497636126573     
  0.381987058668122     
  0.381916812724422     
  6.849465331573636E-002
  6.872858609186493E-002
  0.711770153270265     
  0.712263762752625     
  0.264000807664716     
  0.263661182646075     
  0.396938392541297     
  0.396863769700338     
  0.696510064558156     
  0.696960220719598     
  0.249175430645655     
  0.248828166927922     
  8.370801272508001E-002
  8.345955743328178E-002
  0.411915674972133     
  0.411832175510239     
  0.234305389093187     
  0.233988626925041     
  0.681261013542687     
  0.681658950175012     
  9.867786481023381E-002
  9.848555473365272E-002
  0.426923199797796     
  0.426829033812291     
  0.219390579703562     
  0.219107972205426     
  0.666107620267440     
  0.666456071720228     
  0.113677443938908     
  0.113547743530235     
  0.204418203999839     
  0.204161791885229     
  0.441952247288305     
  0.441848064342453     
  0.128738868670964     
  0.128636339274385     
  0.651027197324927     
  0.651332791976975     
  0.189371576632503     
  0.189138667396336     
  0.143874478914852     
  0.143753950269187     
  0.174244633856382     
  0.174041269003561     
  0.456958199960283     
  0.456846486494068     
  0.159061125843918     
  0.158898165622020     
  0.635973415624538     
  0.636242650877144     
  0.471877985072829     
  0.471761475022645     
  0.620913481429763     
  0.621151748434250     
 -9.950929487427358E-002
 -9.975500583478628E-002
 -0.337819707544298     
  0.486576060108873     
  0.486695674244200     
 -0.267068626326346     
 -0.264232433067163     
  0.605852116079424     
  0.606063467324362     
  0.501455314870705     
  0.501332894589754     
  0.591006418161782     
  0.590817910632959     
  0.516215012554555     
  0.516088472281644     
  0.575972941755850     
  0.575803225894376     
  0.531025755578217     
  0.530893003790232     
  0.560935620884206     
  0.560780980715010     
  0.545790018742996     
  0.545932213118262     
 -3.133048912895309E-002
 -3.203416443707542E-002
 -0.335741971768157     
 -0.329662297969573     
 -0.299498694024393     
 -0.142410343240412     
 -0.142319839827347     
 -0.179160856128316     
 -0.179113018866017     
 -0.206582198675034     
 -0.206880536268042     
 -0.335573924180252     
 -0.341576730309855     
 -8.416124245350724E-002
 -8.452116562527186E-002
 -1.622367185560637E-002
 -1.700758757528063E-002
 -0.342515728994303     
 -0.306351048920836     
  0.741564180740450     
  0.741924744512154     
 -0.345850825936471     
 -0.343147015491626     
 -0.130640845321185     
 -0.130516425713915     
 -1.473581869368406E-003
 -0.278721367439768     
 -6.782212167282107E-004
 -0.344472025325318     
  0.740971544448269     
 -0.283311280532837     
 -0.164152374708223     
 -0.164171053210722     
 -0.349483423102173     
 -6.918316020607904E-002
 -6.974326571746046E-002
  1.423706174169649E-002
  1.493686302407469E-002
 -0.314064582767690     
 -0.112880735459191     
 -0.113087021834501     
  0.739887973432518     
 -0.235508735136188     
 -0.234648529229385     
 -5.524171668561977E-002
 -5.600248804580102E-002
 -0.321169229585909     
 -0.189859593875415     
 -0.189732781453519     
  3.030018091229080E-002
  0.316155789697230     
  0.316215290225971     
  0.330565951575809     
  0.330523782157595     
  2.990348030605247E-002
  0.302024650099201     
  0.301761589086325     
  0.345171094305992     
  0.345242135945782     
  4.526896359829274E-002
  4.538855994220767E-002
 -0.219796217195339     
 -0.220249669991730     
 -0.248725143007984     
 -0.250206818266667     
  0.287644968335281     
  0.287101953681507     
  0.360063071814290     
  0.360130403527013     
  6.065795565420553E-002
  6.009238341158857E-002
  0.757552869001555     
  0.272252163699346     
  0.273032262555510     
  0.375110431865974     
  0.375048425636383     
 -0.348896107017170     
  0.757665654842068     
  0.723689036406903     
  0.724751863830411     
  7.577376464259573E-002
  7.508027137814381E-002
  0.257422904858481     
  0.258277994245376     
  0.390137156518708     
  0.390068798470293     
  0.707682609646277     
  0.708651955034070     
  0.243435064633874     
  0.242642523764508     
  0.405117937279268     
  0.405204912489801     
 -4.142983267769965E-002
 -4.240213575962883E-002
  9.024640238820407E-002
  9.082854847506683E-002
  0.692706056117114     
  0.691852590183821     
  0.227810378854291     
  0.228515559965270     
  0.420218629017643     
  0.420331404147487     
  0.105497154781219     
  0.105907302206694     
  0.677039497593940     
  0.676297320010083     
  0.212853844262203     
  0.213502469174181     
  0.120794466967775     
  0.121088745182386     
  0.435534599607483     
  0.435395304481300     
 -0.292355683790971     
  0.660960775203925     
  0.661606343607577     
  0.197747093925375     
  0.198355996651762     
  0.136435734434452     
  0.136139479575119     
 -0.147467405151831     
 -0.147524033733326     
  0.182467987314222     
  0.183031684025648     
  0.151949789791688     
  0.151558591164061     
  0.450784335484737     
  0.450622930202502     
  0.167036640397278     
  0.167531339873771     
  0.645724067681880     
  0.646287706712906     
  0.465737162143340     
  0.465913660770979     
  0.630976707578907     
  0.630482891949445     
 -0.353494693052302     
  0.480584745354596     
  0.480770935269429     
  0.615620702116487     
  0.615188101244040     
  0.495431052713125     
  0.495236888366574     
  0.599919875539023     
  0.600297815200222     
 -0.263379898235347     
 -0.265822186854058     
  0.510042027865474     
  0.509838475316893     
  0.584771499521681     
  0.585103263853512     
  0.524490622416323     
  0.524707342469727     
  0.569897079569472     
  0.569602244489547     
  0.539293254269528     
  0.539529269519032     
  0.554622827712131     
  0.554359849407925     
  0.756589378205984     
 -0.345293578235805     
 -0.352343903663496     
 -0.298011763048046     
 -2.773328837730281E-002
 -2.656476033372758E-002
 -9.608227180892571E-002
 -9.572255079703135E-002
 -0.329199419604270     
 -0.358209400792247     
 -0.337089017682800     
 -0.169619433929454     
 -0.169590351075651     
 -0.203015475064554     
 -0.203227447487827     
 -0.354897572451138     
 -1.180874698506392E-002
 -1.054566117979339E-002
  0.756251421871692     
  0.754372726553100     
 -0.306453385224322     
 -0.362796184616964     
 -8.041465482675531E-002
 -7.982705857466842E-002
 -0.358221826375991     
  4.495210017830095E-003
 -0.281903214330831     
 -0.126034666208546     
 -0.125897448232295     
  5.755400134080250E-003
 -0.360564679318362     
 -0.359175494905364     
 -0.278066440003059     
  0.738614230360187     
 -0.366921942255026     
 -6.546072008552692E-002
 -6.454742581629468E-002
 -0.234774690924917     
 -0.235403698599173     
  2.191014244058355E-002
  2.080497661253904E-002
 -0.312682312365347     
 -0.345324056218195     
  0.736832005106099     
 -0.354335829991115     
  0.323811154825826     
  0.323779416625905     
  0.310102677405301     
  0.310287869282309     
  3.719018523444530E-002
  0.772356577898637     
  3.685654486140671E-002
  0.338120675359775     
  0.338027598802204     
  0.296511898151340     
  0.295878464808126     
  0.352968894211849     
  0.353041968931675     
  0.774213172890119     
  5.162019760812826E-002
  5.247465329904265E-002
 -5.130585205196995E-002
 -5.245593039277932E-002
  0.282097924953128     
  0.280888994641721     
  0.368044555395840     
  0.368091481273038     
  0.774045103123740     
 -0.321312036205680     
  6.774213053508663E-002
  6.637582927487012E-002
 -0.364229792065598     
  0.265901647918251     
  0.267424943917866     
  0.383193400009200     
  0.383147150959690     
  0.719605582095692     
  0.721216860083265     
  0.251213384907107     
  0.252628129811420     
  8.169781203192207E-002
  8.285241202385053E-002
  0.398328130065668     
  0.398255335098633     
 -0.184895395137480     
 -0.184796612711564     
  0.702814037465826     
  0.704223991701586     
  0.237741444671298     
  0.236552526898679     
 -0.107572496376018     
 -0.107851965828437     
  9.794439110238201E-002
  9.714787382370607E-002
  0.774680579568938     
  0.413404841186852     
  0.413521816435013     
  0.687871645066370     
  0.686652311376054     
 -0.248021947401691     
 -0.246898788314063     
  0.221673833177792     
  0.222752356982539     
  0.113137676562873     
  0.112655395933781     
  0.428670391160303     
  0.428836534626576     
  0.206573858474949     
  0.207610844620757     
  0.671014332498014     
  0.672072939532520     
  0.128191695434940     
  0.128564403712143     
  0.191230586458554     
  0.192220011553411     
  0.144346883669544     
  0.143809837042481     
  0.176471240150707     
  0.175549047697560     
  0.444334003449639     
  0.444123970710280     
  0.160417347109092     
  0.159630371062185     
  0.655627342626334     
  0.656552272187297     
 -0.370373528265965     
 -0.217854964340783     
 -0.218133916070195     
  0.459974243086744     
  0.459731667809236     
  0.641091791335040     
  0.640279717825925     
  0.475083321380376     
  0.474823924615185     
  0.625518163649770     
  0.624804406827333     
 -0.369847622786694     
  0.489595586723378     
  0.489323401453577     
 -0.362148210249967     
  0.609125279315052     
  0.609748829243044     
 -4.010623330713843E-002
 -3.855450442831715E-002
  0.504002458200190     
  0.503716977421307     
  0.593721495122020     
  0.594259830579885     
  0.518418777814746     
  0.518115006049378     
  0.579188517936624     
  0.578714200029313     
  0.532664218531373     
  0.532994012290964     
  0.563553423307116     
  0.563129973983850     
  0.547508096416013     
  0.547876774070433     
 -0.291874451552561     
 -0.154590600910330     
 -0.154582520713385     
  0.769788846849598     
 -0.261732151342272     
 -0.263577539194399     
 -9.102014279208606E-002
 -9.049175167620431E-002
 -0.296413093555557     
 -2.329676055969568E-002
 -2.146553251113621E-002
 -0.362785644878622     
  0.753849558790769     
 -0.138153842391977     
 -0.138189866513892     
 -0.375320313993349     
 -0.327856548686530     
 -0.337530127210125     
 -0.371056895296888     
  0.772729036277419     
 -0.373018708956906     
 -6.099690387087344E-003
 -4.262999464998512E-003
 -7.585990907151924E-002
 -0.374732801629479     
 -7.498498181754622E-002
  0.751138546877837     
 -0.167210013694788     
 -0.167146497621696     
 -0.199315339169495     
 -0.199176566478151     
 -0.380646642910024     
 -0.305399489952998     
 -0.373009028782629     
 -0.277593083335520     
 -0.280650479937369     
 -0.378057909639836     
 -0.235098307636985     
 -0.234810170654665     
  1.105120709776833E-002
  1.300567197959088E-002
  0.788740959969437     
 -0.118991370021104     
 -0.118853565476392     
 -0.380416917413077     
  0.735012723161042     
 -0.385571301175752     
 -0.355390130960424     
  3.010636045935122E-002
  2.803710755231082E-002
  0.317560828996396     
  0.317494341311409     
  0.330287647354399     
  0.330091117570654     
 -5.852524001410433E-002
  0.305380272377875     
  0.305682623153758     
  4.377168518452249E-002
  0.791860377963099     
 -0.310310963869934     
 -0.344297798309555     
 -5.688793321198277E-002
  0.732585356048306     
  4.429913254669658E-002
  0.345695340497790     
  0.345577582988921     
  0.289970928442572     
  0.291331560790778     
  0.791016394306786     
  5.686156327643212E-002
  0.360859446660207     
  0.360886534051386     
  5.969343028257227E-002
  0.276657022060420     
  0.274168232424596     
  0.376098220248280     
  0.376099112971042     
  7.274597191570627E-002
  7.481359668375974E-002
  0.259405832780197     
  0.261886126949456     
 -0.380515513697378     
 -0.389760412228755     
  0.391307667508252     
  0.391278029673242     
  0.714255154329454     
  0.716362690564882     
  0.245296905631891     
  0.247042186246230     
  0.792662618091543     
  8.843774711413309E-002
  8.984866739156215E-002
  0.406519632625551     
  0.406423183795452     
  0.232117832181312     
  0.230616876217744     
  0.792383947853256     
  0.697000195670857     
  0.698797636624776     
  0.104952766096118     
  0.104205753054522     
 -0.102029745874633     
  0.215567565880641     
  0.217065730664160     
 -0.101674698404563     
  0.421652279755330     
  0.421831909221484     
  0.120254379352459     
  0.119954251846047     
  0.681046620063799     
  0.682603539539365     
  0.200293790188892     
  0.201798518153942     
 -0.150510051112986     
 -0.150445788608963     
  0.135664156814081     
  0.136034837050428     
  0.184664016520840     
  0.186065179303271     
  0.151551436627104     
  0.152617233263920     
  0.437138906418165     
  0.437394519195339     
  0.168164971326195     
  0.169553152989325     
 -0.319968694278089     
  0.665567961844563     
  0.666933926893358     
  0.770464327772214     
  0.453417853973881     
  0.453100284062513     
  0.650244443999292     
  0.651450911143701     
  0.470258970253631     
  0.469902467757959     
  0.635860172852853     
  0.634789803430268     
  0.483942040218771     
  0.483589309644524     
 -0.215470877783812     
 -0.215361570229507     
  0.619875466149723     
  0.618928902751332     
 -0.255362687551228     
 -0.254421964796546     
  0.497915946128240     
  0.498305539079908     
  0.602137356484810     
  0.602960087382111     
  0.512188507328703     
  0.511799608681413     
  0.587595729783530     
  0.588277860474586     
  0.526548774628460     
  0.526106175842882     
  0.573391137041847     
  0.574041538844894     
  0.540396480161101     
  0.540857902923213     
  0.555127109680428     
  0.555684085901741     
 -0.180119264771348     
 -0.180005138237185     
 -0.386893288457415     
 -3.650684799304712E-002
 -3.383894190635107E-002
  0.785924543438206     
 -0.291123611560100     
 -0.381730430173077     
  0.766591700398819     
 -8.406605825018941E-002
 -8.327697908117289E-002
 -0.374833532376306     
  0.790202202465866     
 -0.362382633691725     
 -0.325046040626207     
 -0.294746766973860     
 -1.782728250275356E-002
 -0.393133477757512     
 -1.520183967535947E-002
  0.750470470972401     
 -0.131631134571957     
 -0.131591646705239     
 -0.389665283461082     
 -0.387118128361633     
 -0.336823180039020     
 -0.393151751978438     
 -0.392862597509000     
  2.693368347546943E-003
  4.813804871304389E-004
 -0.399775553239636     
  0.747008641082747     
  0.805392715999145     
 -0.397105533448402     
 -0.234636117030723     
 -0.234782933438420     
 -0.301403849647901     
 -0.163512002249610     
 -0.163389768828198     
 -0.194009643374589     
 -0.193862873038074     
 -0.400173917725809     
 -0.108340873469742     
 -0.108240616476319     
 -0.279131167043954     
 -0.281317269051638     
  1.828698737444696E-002
 -0.395793341478489     
  2.164848027663612E-002
  0.788199154346725     
 -0.405625139432653     
  0.729959093563424     
  0.810251395918664     
  4.292883509993443E-002
  3.663920927666859E-002
  0.808380628209279     
  0.318149528826966     
  0.317601080766460     
  0.338291511789427     
  0.338010374805492     
  0.300533048202503     
  0.300849085982704     
 -0.355540734691422     
  5.183114888278288E-002
  0.353439371584226     
  0.353430247374751     
  0.726958917041541     
  0.282893088738361     
  0.286191312083639     
 -0.382041640587355     
 -0.342070275541059     
  6.676201111228698E-002
  0.368941552891168     
  0.368844502770748     
  0.271028959407470     
  0.265868631223576     
  6.354700999879798E-002
  0.811566667921044     
  7.937881770237530E-002
  8.177151600344316E-002
  0.253908531897360     
  0.256568002951069     
 -0.304917458698350     
  0.384155936608548     
  0.384216887496974     
  0.810622056912059     
  0.240004325823985     
  0.241352343248764     
  9.657320833580484E-002
  9.527720089847463E-002
  0.399442708545941     
  0.399412928683803     
  0.706786359175570     
  0.709309506323712     
 -0.410532361791198     
  0.226794269323261     
  0.224520454362257     
  0.811724810733230     
  0.783010843891210     
 -4.822110643390289E-002
  0.111802761055588     
  0.111593792950818     
  0.414419882286506     
  0.414583010333583     
  0.690604822982061     
  0.692701914822242     
  0.209632250192457     
  0.211354273897780     
  0.127252656660914     
  0.126907724385922     
 -0.398972546365971     
 -0.251537753570365     
 -0.251433740609872     
  0.193989243887784     
  0.196493454081148     
 -4.485046932568258E-002
  0.143071295095515     
  0.143422501101979     
  0.179850659988155     
  0.178638752175156     
  0.429741739469061     
  0.430040713378930     
  0.158824408811288     
  0.161864598156451     
  0.675543835258216     
  0.677479240890374     
  0.445433208239685     
  0.445820797588941     
  0.659986843566949     
  0.661633522446864     
  0.462649814209003     
  0.462164385556117     
  0.645229148985399     
  0.646779945900959     
 -6.587165493241676E-002
  0.486423102501209     
  0.485902900275774     
  0.630552324778977     
  0.629230961276286     
  0.613436177948521     
  0.614686586810685     
  0.513634837726674     
  0.513067188273708     
  0.589945932325343     
  0.590954320830619     
 -6.392220133281580E-002
 -0.147956000675549     
 -0.147748409715872     
  0.540497614927568     
  0.541165442277831     
  0.565741578277903     
  0.566595189340156     
  0.802413182025123     
  0.767798367869623     
 -0.317081173328445     
  0.808165728750660     
 -0.414709385043127     
 -0.402118029975990     
 -0.403120794258412     
 -3.136490811551595E-002
 -2.622576529339746E-002
 -0.171738856131228     