 TITLE="euler solver on unstructured grid" 
 VARIABLES= "X" "Y"  "P" "Rou" "U"  "V"  "nuT"
 ZONE NODES=        5306  ELEMENTS=       10382  ZONETYPE=FETRIANGLE
 DATAPACKING=BLOCK
 VARLOCATION=([3-7]=CELLCENTERED)
 -0.272874561658921     
 -0.265342452631061     
 -0.257526631358256     
 -0.249663494400157     
 -0.241775471998350     
 -0.233871293760372     
 -0.225955445734542     
 -0.218030595300939     
 -0.207452670688583     
 -0.196865530763476     
 -0.186269025423967     
 -0.175665427278334     
 -0.165056736134620     
 -0.154441680379095     
 -0.143821835463880     
 -0.133198716218821     
 -0.122570687296540     
 -0.111939081660061     
 -0.101305201961267     
 -9.066726129709533E-002
 -8.002647138601966E-002
 -6.938404394651254E-002
 -5.873810114209922E-002
 -4.390659941716162E-002
 -2.907088444414207E-002
 -1.423128964555059E-002
  6.129117188891423E-004
  1.545950839019239E-002
  3.030922710863553E-002
  4.516191631853214E-002
  6.001739415305855E-002
  7.487547874539109E-002
  8.973604885098055E-002
  0.104599922143515     
  0.119465008608560     
  0.134332186542076     
  0.149201334699516     
  0.164072392458605     
  0.178945208263656     
  0.193819721492394     
  0.208696840751920     
  0.223574536650073     
  0.238453687482816     
  0.253334232627873     
  0.268216141774108     
  0.283099354299246     
  0.297983779269875     
  0.312870416226507     
  0.327757205465845     
  0.342645085906124     
  0.357534057547345     
  0.372424059767234     
  0.387315062254653     
  0.402207065009602     
  0.417101037261456     
  0.431994949618054     
  0.446889801619908     
  0.461785562955880     
  0.476682203314833     
  0.491579753007905     
  0.506478212035095     
  0.521378549625778     
  0.536278766698930     
  0.551179893106201     
  0.566081898536453     
  0.580984843611961     
  0.595888667710449     
  0.610793461765331     
  0.625700195005980     
  0.640606868351373     
  0.655514572275434     
  0.670423276467024     
  0.685333011237283     
  0.700243837208483     
  0.715155754380626     
  0.726665950254812     
  0.715328649107673     
  0.700540219508811     
  0.685750698709007     
  0.670960086708261     
  0.656168444128847     
  0.641375801281903     
  0.626582127856291     
  0.611786515244912     
  0.596990962528789     
  0.582194439856273     
  0.567397038160776     
  0.552598696820023     
  0.537799476456289     
  0.522999346758437     
  0.508197338497091     
  0.493395450753277     
  0.478592653675344     
  0.463788947263292     
  0.448984361828260     
  0.434178867059109     
  0.419372432644702     
  0.404564059044528     
  0.389755715028472     
  0.374946370744887     
  0.360136026193771     
  0.345324651063988     
  0.330512184733262     
  0.315698627201594     
  0.300882918306198     
  0.286066996505823     
  0.271249862259956     
  0.256431424635186     
  0.241611623009239     
  0.226790427070977     
  0.211967776198125     
  0.197142549605623     
  0.182316716063357     
  0.167489185097403     
  0.152659896085487     
  0.137828697471922     
  0.122995528634434     
  0.108160268328474     
  9.332179576897984E-002
  7.848201910356474E-002
  6.363975692489258E-002
  4.879488798841432E-002
  3.394723042730625E-002
  1.909660237474470E-002
  4.242852275043274E-003
 -1.061529221254545E-002
 -2.547604418495866E-002
 -4.034067598294373E-002
 -5.520952102901081E-002
 -6.588777550576508E-002
 -7.656754626640168E-002
 -8.725095363649361E-002
 -9.793721025348991E-002
 -0.108625528754840     
 -0.119318120399527     
 -0.130014288758415     
 -0.140713367713499     
 -0.151417720079451     
 -0.162126861605094     
 -0.172840368661524     
 -0.183560967797059     
 -0.194288659738718     
 -0.205023718013754     
 -0.215769990682565     
 -0.223837788439583     
 -0.231914588604372     
 -0.240003058557014     
 -0.248107684345827     
 -0.256237195578347     
 -0.264414022496162     
  -10.5713910536005     
  -9.57185054168673     
  -8.57231002977300     
  -7.57276951785927     
  -6.57322900594553     
  -5.57368849403180     
  -4.57414798211807     
  -3.57460747020433     
  -2.57506695829060     
  -1.57552644637687     
 -0.575985934463134     
  0.423554577450599     
   1.42309508936433     
   2.42263560127807     
   3.42217611319180     
   4.42171662510553     
   5.42125713701926     
   6.42079764893300     
   7.42033816084673     
   8.41987867276046     
   9.41941918467420     
   9.44973032195462     
   9.48004145923504     
   9.51035259651546     
   9.54066373379588     
   9.57097487107630     
   9.60128600835672     
   9.63159714563715     
   9.66190828291757     
   9.69221942019799     
   9.72253055747841     
   9.75284169475883     
   9.78315283203925     
   9.81346396931967     
   9.84377510660009     
   9.87408624388052     
   9.90439738116094     
   9.93470851844136     
   9.96501965572178     
   9.99533079300220     
   10.0256419302826     
   9.02610141836889     
   8.02656090645516     
   7.02702039454142     
   6.02747988262769     
   5.02793937071396     
   4.02839885880022     
   3.02885834688649     
   2.02931783497276     
   1.02977732305902     
  3.023681114529153E-002
 -0.969303700768442     
  -1.96884421268217     
  -2.96838472459591     
  -3.96792523650964     
  -4.96746574842337     
  -5.96700626033711     
  -6.96654677225084     
  -7.96608728416457     
  -8.96562779607831     
  -9.96516830799204     
  -9.99547944527246     
  -10.0257905825529     
  -10.0561017198333     
  -10.0864128571137     
  -10.1167239943941     
  -10.1470351316746     
  -10.1773462689550     
  -10.2076574062354     
  -10.2379685435158     
  -10.2682796807963     
  -10.2985908180767     
  -10.3289019553571     
  -10.3592130926375     
  -10.3895242299179     
  -10.4198353671984     
  -10.4501465044788     
  -10.4804576417592     
  -10.5107687790396     
  -10.5410799163200     
 -0.222799907685106     
 -0.220288793177632     
 -0.213723967288541     
 -0.211020799334795     
 -0.229053725606956     
 -0.231366796281423     
 -0.219592222069813     
 -0.216659875432566     
 -0.200939715491114     
 -0.203831578266105     
 -0.238096367681003     
 -0.240185850426680     
 -0.228084030062844     
 -0.225372232058938     
 -0.210594214135093     
 -0.207426400393886     
 -0.249308676196764     
 -0.247440663358315     
 -0.190530290346003     
 -0.193591081003817     
 -0.237253626421053     
 -0.234791882593894     
 -0.275644032613183     
 -0.275382388619587     
 -0.256738669018695     
 -0.258485665536590     
 -0.217531627696184     
 -0.214164020929218     
 -0.200723902928581     
 -0.197335157515284     
 -0.224734960529947     
 -0.221654964126553     
 -0.282567761238208     
 -0.282295569903329     
 -0.180099142019663     
 -0.183305313532252     
 -0.267309590245565     
 -0.265710274347369     
 -0.283532901199021     
 -0.282345327312507     
 -0.245349975736153     
 -0.247484552706845     
 -0.289414824563553     
 -0.208083800453423     
 -0.204411525735950     
 -0.274783399476424     
 -0.274005723474255     
 -0.169796908738776     
 -0.173137608382386     
 -0.291550151924265     
 -0.190518974784902     
 -0.186948957524162     
 -0.232664736992987     
 -0.229748058932572     
 -0.291093212204923     
 -0.225704372643404     
 -0.222294529253173     
 -0.159456111358448     
 -0.162934749667300     
 -0.256318773016984     
 -0.258198850867460     
 -0.291592814501963     
 -0.216365507586215     
 -0.212496754075079     
 -0.292672791569003     
 -0.197655523156393     
 -0.193733099777679     
 -0.148802534157349     
 -0.152415226770382     
 -0.180624788345612     
 -0.176912887838920     
 -0.283864666747850     
 -0.266580341748264     
 -0.268845338232408     
 -0.243635838345491     
 -0.241089690774926     
 -0.299449930516869     
 -0.279585175489385     
 -0.137839814712422     
 -0.141569114102805     
 -0.301304005877723     
 -0.301507399130122     
 -0.275459026288900     
 -0.205527299649309     
 -0.201281908810170     
 -0.171220452987966     
 -0.167346201779706     
 -0.130570917932160     
 -0.126745278954041     
 -0.226341676832310     
 -0.222419205376080     
 -0.187158254081349     
 -0.183070290352192     
 -0.292642671040025     
 -0.236443789676732     
 -0.233235139715622     
 -0.115670514378764     
 -0.119574313465344     
 -0.256216333498230     
 -0.254312290696315     
 -0.157252320842310     
 -0.161325159252570     
 -0.302847233797576     
 -0.292207696753958     
 -0.302769017940058     
 -0.104703507736597     
 -0.108677049797259     
 -0.214865703657837     
 -0.210367578573143     
 -0.189329396249622     
 -0.193832919496680     
 -0.146147704388251     
 -0.150395429067955     
 -0.302408029715598     
 -0.178366470542077     
 -0.174211588098591     
 -9.378445090891877E-002
 -9.782681994333953E-002
 -0.283965991321443     
 -0.311460745341935     
 -0.268737671824874     
 -0.267427374614272     
 -0.309589235372731     
 -0.311169704427846     
 -0.305036525137612     
 -0.134634590848954     
 -0.139018134914127     
 -0.280632633440349     
 -8.309498281013403E-002
 -8.719179999214428E-002
 -0.312801844584966     
 -0.314357209750909     
 -0.166452754337004     
 -0.170904270931701     
 -7.264417640254968E-002
 -7.683306653861982E-002
 -0.197323256413402     
 -0.202238464061574     
 -0.315549100291605     
 -0.123019621335237     
 -0.127509316076942     
 -0.277748053983536     
 -0.251604521283440     
 -0.249040432048600     
 -0.225957651929756     
 -0.221311887660049     
 -0.181882587430849     
 -0.177276254253077     
 -0.289996143989201     
 -6.148041453641342E-002
 -6.581515887877422E-002
 -0.238544514501956     
 -0.234760039705512     
 -0.116203261753022     
 -0.111642678611779     
 -0.155324560124384     
 -0.160063954883131     
 -0.293355214509560     
 -5.305398469605642E-002
 -4.857624836321096E-002
 -0.319053528165314     
 -0.314350936436695     
 -0.100597701383946     
 -0.105247195082507     
 -0.322520627993761     
 -0.212608865669502     
 -0.207335851376010     
 -0.143060374999973     
 -0.147980190288191     
 -3.892162716553864E-002
 -3.431418132796848E-002
 -0.300103052363184     
 -0.183276374433608     
 -0.188437936437422     
 -0.324479292437018     
 -0.267478235472603     
 -0.266569719474345     
 -8.916439112439420E-002
 -9.391520071654755E-002
 -0.306967352084167     
 -2.425287546085316E-002
 -1.954041518932728E-002
 -0.325801058403975     
 -0.136101542132666     
 -0.131035653754876     
 -7.920456944051493E-002
 -8.393206915298224E-002
 -0.330444819191900     
 -0.280887568352784     
 -0.327732556240313     
 -0.172527161922711     
 -0.167317082491948     
 -0.282932034639265     
 -9.251937649170193E-003
 -4.476994306813172E-003
 -6.968066157335545E-002
 -7.470857092977790E-002
 -0.123623911817530     
 -0.118441972653610     
 -0.198028099629738     
 -0.192327451678376     
  5.932222263406085E-003
  1.070628601230681E-002
 -0.313251234298967     
 -0.233825294893147     
 -0.238522610079569     
 -0.224677292207656     
 -0.219120381923710     
 -5.694259870469479E-002
 -6.224446543287235E-002
 -0.252200986320403     
 -0.248669455527302     
 -0.321624100404773     
  2.585056623815864E-002
  2.116731627852260E-002
  0.320709772146023     
  0.324270128699284     
 -0.107486482985231     
 -0.112642143500491     
  0.335410351719221     
  0.338943308329850     
  0.306102157116227     
  0.309655342456947     
  3.636349067585816E-002
  4.085858445745431E-002
  0.725790871093110     
  0.727106661842781     
 -0.151745150074617     
 -0.157232208304599     
 -0.294178734857262     
 -4.323485975242867E-002
 -4.878103020392783E-002
  0.350238706566410     
  0.353717501956288     
  0.291480527715317     
  0.294996178796937     
 -0.334429118003907     
  5.147615532850176E-002
  5.575322713916629E-002
  0.368563409463108     
  0.365153544994029     
 -0.327970011370019     
  0.276771219261600     
  0.280246062794464     
  0.383446270944001     
  0.380109527194613     
  7.064370235267287E-002
  6.650658696728609E-002
  0.710910933294997     
  0.712439160640149     
  0.261975777986586     
  0.265450705048331     
  0.398352517187723     
  0.395087937002767     
  0.695582244449509     
  0.697226719809980     
  0.247121528228530     
  0.250656733007720     
  8.148680025460579E-002
  8.559877378193770E-002
  0.413283005563247     
  0.410089394997086     
  0.232223802361741     
  0.235855439490849     
  0.680275714359618     
  0.682002431424412     
  9.645828182042369E-002
  0.100611391878513     
  0.428241824947927     
  0.425121022236815     
  0.217282388280960     
  0.221012564725172     
  0.665069996366572     
  0.666869641300560     
  0.111460368166905     
  0.115656610492491     
  0.202284543396569     
  0.206103350126326     
  0.443219609463177     
  0.440177191492863     
  0.126525775016138     
  0.130725158509530     
  0.649939533394463     
  0.651813077272540     
  0.187214072484669     
  0.191115770460817     
  0.141668151624254     
  0.145819916628538     
  0.172066108980312     
  0.176051515127158     
  0.458171185503873     
  0.455215780182999     
  0.156866045479545     
  0.160938116156412     
  0.634837058574512     
  0.636787615614384     
  0.473034406553401     
  0.470173159357891     
  0.619729999155891     
  0.621759371902739     
 -9.687837250136076E-002
 -0.102290373555304     
 -0.337817500764931     
  0.485030066451951     
  0.487795710916781     
 -0.264555106912718     
 -0.266487784352851     
  0.604623777415187     
  0.606731156539282     
  0.502500687897925     
  0.499827581416990     
  0.591731917085186     
  0.589546677099667     
  0.517207601760742     
  0.514621969145084     
  0.576755342297485     
  0.574489771042514     
  0.531967031995441     
  0.529463767272464     
  0.561773459761202     
  0.559426611260852     
  0.544397462141156     
  0.546822612328667     
 -2.878579152212902E-002
 -3.455553804088014E-002
 -0.335344152767817     
 -0.327600951754055     
 -0.297457258786185     
 -0.145076181007647     
 -0.139519752211112     
 -0.176081302727734     
 -0.182021964548798     
 -0.209722034493254     
 -0.203537572069612     
 -0.337398512785244     
 -0.342048030227561     
 -8.150908019842318E-002
 -8.709165419680609E-002
 -1.364560610729076E-002
 -1.958255003381833E-002
 -0.341724709185121     
 -0.308304798106365     
  0.740942973734067     
  0.741783204555802     
 -0.346810981159177     
 -0.341851185169106     
 -0.133433903010035     
 -0.127599234208138     
 -4.088230485752984E-003
 -0.280734173713320     
  1.917643008213554E-003
 -0.342691611980176     
  0.741318038254010     
 -0.281039403601497     
 -0.161083421235037     
 -0.167084499220624     
 -0.350949243754613     
 -6.640318103098852E-002
 -7.245542897635548E-002
  1.159707571334757E-002
  1.753512840660142E-002
 -0.311749412858153     
 -0.109945372420113     
 -0.115913491277703     
  0.738766483715846     
 -0.232070600059982     
 -0.237842748728260     
 -5.239403823473870E-002
 -5.879729207497537E-002
 -0.323320002883478     
 -0.186400920867061     
 -0.193008055999639     
  3.288888962955433E-002
  0.318202180889510     
  0.313892943269000     
  0.332578303164526     
  0.328217851096917     
  2.725053005216087E-002
  0.299674362817166     
  0.303853915332624     
  0.342878799450875     
  0.347224364980808     
  4.784713179952090E-002
  4.273132777943765E-002
 -0.223214111733134     
 -0.216608629436078     
 -0.251699385539438     
 -0.246969136755010     
  0.285258863891821     
  0.289245776345056     
  0.357789752113735     
  0.362078567628077     
  5.800036208097618E-002
  6.266788847790085E-002
  0.757672034505742     
  0.274442474771248     
  0.270609653626494     
  0.377019902542087     
  0.372799848401918     
 -0.348559476545471     
  0.757250567414359     
  0.722441764125394     
  0.725267668172845     
  7.311631556471654E-002
  7.765528538732760E-002
  0.259654131849976     
  0.255820178461331     
  0.392004496829018     
  0.387848869128566     
  0.706346048488130     
  0.709289962768758     
  0.240943356525006     
  0.244913911712419     
  0.402928816660951     
  0.407027841304531     
 -3.851965258096251E-002
 -4.527705963555622E-002
  9.281567465725964E-002
  8.817044230315887E-002
  0.693436872048325     
  0.690449964601763     
  0.230123142977405     
  0.225990815466199     
  0.418062037980140     
  0.422107776360260     
  0.108054762735146     
  0.103247536528561     
  0.677847854651881     
  0.674840015379882     
  0.215208379980787     
  0.210945187238104     
  0.123335770506385     
  0.118426919830889     
  0.437261211617819     
  0.433273967608861     
 -0.294583691203809     
  0.659452824428695     
  0.662485697842183     
  0.200142949492151     
  0.195766838652921     
  0.133773300235963     
  0.138661176622288     
 -0.144205920732800     
 -0.150645236570796     
  0.184903385540548     
  0.180412702656865     
  0.149292144855124     
  0.154057320454547     
  0.452455908817052     
  0.448541775259991     
  0.169507026566304     
  0.164888164303102     
  0.644166654626134     
  0.647235275501611     
  0.463703033950566     
  0.467523310849469     
  0.631990436936711     
  0.628877065967757     
 -0.353603626493047     
  0.478599452014779     
  0.482317110127821     
  0.616697108946378     
  0.613536687604159     
  0.496918549845137     
  0.493295897937349     
  0.598228298608246     
  0.601430906431995     
 -0.266125387570693     
 -0.262793954694506     
  0.511476065162059     
  0.507936668631322     
  0.583041342896006     
  0.586290859486344     
  0.522623369305151     
  0.526092490174370     
  0.571141394283114     
  0.567830914205469     
  0.537456690643365     
  0.540869162480093     
  0.555918370878657     
  0.552552647920095     
  0.755638509719132     
 -0.342993984282633     
 -0.354341544355787     
 -0.295459296892872     
 -3.069555950149208E-002
 -2.358963788704431E-002
 -9.903987379941118E-002
 -9.267014751141962E-002
 -0.326618435146524     
 -0.358790918801285     
 -0.339443158013173     
 -0.166092034758986     
 -0.172955974084443     
 -0.206627261040679     
 -0.199415344613825     
 -0.353835594586596     
 -1.483606002239949E-002
 -7.531585068170572E-003
  0.756916529787262     
  0.752874230007097     
 -0.308895895633754     
 -0.363875913655050     
 -8.346105105626023E-002
 -7.669963353123660E-002
 -0.356751603923518     
  1.426262856198828E-003
 -0.279112521409117     
 -0.129288424992211     
 -0.122521805047740     
  8.783994791800061E-003
 -0.358581188211194     
 -0.358491235826593     
 -0.280556361176573     
  0.739478574056707     
 -0.368528877163078     
 -6.860818585146826E-002
 -6.133348484007723E-002
 -0.238435434933976     
 -0.231493269146491     
  2.492963199438411E-002
  1.771447675888042E-002
 -0.309851471241959     
 -0.342473513802490     
  0.735185774962709     
 -0.356896837914003     
  0.326235164593513     
  0.321075679439322     
  0.312563196468583     
  0.307568820905793     
  4.018120781347944E-002
  0.771042843733092     
  3.376113529694035E-002
  0.340532390909530     
  0.335316920329704     
  0.293747229703393     
  0.298407510882752     
  0.350264580020364     
  0.355430345127759     
  0.774631440829155     
  5.460519271648140E-002
  4.938244074868428E-002
 -4.808550193594959E-002
 -5.562600864223613E-002
  0.279287852845434     
  0.283478422948860     
  0.365358596612563     
  0.370447195324639     
  0.773308013837699     
 -0.323983521373971     
  6.465224337603269E-002
  6.937835001511099E-002
 -0.363974786870270     
  0.268532461873009     
  0.264572620119092     
  0.385510049897883     
  0.380487257609967     
  0.717850962692173     
  0.722231612208339     
  0.253881619839361     
  0.249735814627507     
  8.470611042273404E-002
  7.976176580392930E-002
  0.400602779458037     
  0.395624422945005     
 -0.180951366739176     
 -0.188562729199766     
  0.700986363918426     
  0.705346203630556     
  0.234810132524748     
  0.239264924744758     
 -0.104134128794990     
 -0.111183008779151     
  9.484961990706298E-002
  0.100151318009348     
  0.774518997639597     
  0.410803614957162     
  0.415752999693781     
  0.689075390289150     
  0.684771681652911     
 -0.244367777381429     
 -0.250283876766409     
  0.224432609143379     
  0.219782009571272     
  0.110035650810918     
  0.115646063574254     
  0.426100244976655     
  0.431021951545744     
  0.209379737822824     
  0.204600717025276     
  0.669085363168199     
  0.673349441300823     
  0.131165534140805     
  0.125453098138154     
  0.194083766198018     
  0.189169532780163     
  0.141227879475918     
  0.146764902913586     
  0.173382601469142     
  0.178447479667901     
  0.446468651335182     
  0.441589089835469     
  0.157303150329484     
  0.162563029179102     
  0.653649559556102     
  0.657899370029274     
 -0.372541851160926     
 -0.221776067328410     
 -0.213991253059277     
  0.462047212686673     
  0.457242445696547     
  0.642509013398369     
  0.638251952674707     
  0.477076355168308     
  0.472399031612097     
  0.627004017400859     
  0.622727171261454     
 -0.370039199220021     
  0.491521702840897     
  0.486950583246135     
 -0.359611527920966     
  0.607004709491369     
  0.611296591173875     
 -4.343676435953632E-002
 -3.519330643636014E-002
  0.505871789739237     
  0.501386368548852     
  0.591575368812106     
  0.595850785300155     
  0.520239495875336     
  0.515818455506948     
  0.580835197248930     
  0.576528802638874     
  0.530394537603326     
  0.534773124981420     
  0.565266556128692     
  0.560894659005654     
  0.545257424492018     
  0.549621633133480     
 -0.294579338204953     
 -0.150808537330907     
 -0.158217409605711     
  0.767892078676915     
 -0.264984209315274     
 -0.260028180363735     
 -9.444029970072824E-002
 -8.697716194964566E-002
 -0.293354966669897     
 -2.673123112485467E-002
 -1.803380865577990E-002
 -0.359660073708171     
  0.755080342324491     
 -0.134344234214698     
 -0.141866521448232     
 -0.375993476253564     
 -0.324733501124337     
 -0.340444478185012     
 -0.369988463786066     
  0.773736505281555     
 -0.375784845525255     
 -9.598822139049074E-003
 -7.983224029706397E-004
 -7.931536779520890E-002
 -0.373102846000066     
 -7.144864846917670E-002
  0.749075479463403     
 -0.163136107557172     
 -0.171061658813833     
 -0.194990738738330     
 -0.203307044332180     
 -0.381832350694960     
 -0.308340120931412     
 -0.372415262063480     
 -0.280578843382545     
 -0.277338655072513     
 -0.375876525611392     
 -0.230651281347043     
 -0.239007261797815     
  7.517986604711110E-003
  1.647488584777501E-002
  0.787037146968349     
 -0.122745890196606     
 -0.114980842233265     
 -0.377641697334262     
  0.736422055910148     
 -0.387310236575687     
 -0.358550330122949     
  3.353791662202638E-002
  2.449303241291435E-002
  0.320332715218979     
  0.314458164213937     
  0.333117061499846     
  0.326976058009624     
 -6.221678073673302E-002
  0.308267743887051     
  0.302558864633401     
  4.710571114507062E-002
  0.792606999252626     
 -0.306962319710516     
 -0.340865944191316     
 -5.313073689519160E-002
  0.730392488633763     
  4.077169142295729E-002
  0.348517657596350     
  0.342447888466562     
  0.292959369666192     
  0.288146254202896     
  0.789918916675144     
  6.028128062455365E-002
  0.357738213534644     
  0.363685390829858     
  5.617552273002226E-002
  0.273420974279669     
  0.277209977485042     
  0.378860186519237     
  0.373002920362042     
  7.618854216790669E-002
  7.129772324409094E-002
  0.262457467596239     
  0.258604112727918     
 -0.380296789168069     
 -0.392094178439499     
  0.394028166760581     
  0.388211859567783     
  0.711978154048945     
  0.717897874490338     
  0.248396768631063     
  0.243716030713006     
  0.792790806236441     
  9.188568107439599E-002
  8.632841856740632E-002
  0.409199252075950     
  0.403384989447549     
  0.228747130973877     
  0.233768442101672     
  0.791897138009493     
  0.694686127050348     
  0.700404769983268     
  0.101422444169106     
  0.107643556235508     
 -0.105784445297731     
  0.218771627857342     
  0.213648977358874     
 -9.781401571168333E-002
  0.418640107475278     
  0.424470982318335     
  0.116707786337911     
  0.123375108080892     
  0.678694344349029     
  0.684277294783458     
  0.203551589809099     
  0.198332151828331     
 -0.146289975849552     
 -0.154522950003396     
  0.139068286809362     
  0.132466634274037     
  0.187979073885328     
  0.182545245331084     
  0.154941227175013     
  0.149025037387813     
  0.434153652919062     
  0.439990739325176     
  0.171538612195375     
  0.165977117006466     
 -0.323189606605962     
  0.663171250779573     
  0.668676852123911     
  0.772075450660022     
  0.455965243571051     
  0.450146711965341     
  0.647797969251386     
  0.653266115559344     
  0.472733492478212     
  0.467003464136382     
  0.637750256503195     
  0.632289580134762     
  0.486264505487579     
  0.480827253024719     
 -0.210768047494259     
 -0.219850661974546     
  0.621841645437385     
  0.616373131660432     
 -0.251238723904264     
 -0.258254292863761     
  0.495128934479550     
  0.500638034683874     
  0.599538129335443     
  0.604990519057981     
  0.514398452290330     
  0.509120485150212     
  0.585048233177426     
  0.590274417246446     
  0.528790774195995     
  0.523380054290607     
  0.570711838155668     
  0.576185402455488     
  0.537759673396920     
  0.542995613451851     
  0.552412223591848     
  0.557883811829066     
 -0.175672281731815     
 -0.184281611280634     
 -0.387148614931826     
 -4.034355218213979E-002
 -2.998029216972744E-002
  0.783615222974014     
 -0.294259116870652     
 -0.378325763243273     
  0.764098492804341     
 -8.802356179013655E-002
 -7.922288959543480E-002
 -0.378235502022964     
  0.791569767992496     
 -0.358634181527742     
 -0.321357298063603     
 -0.291240432644252     
 -2.176570461410622E-002
 -0.393873279641540     
 -1.129871307278363E-002
  0.752292908246001     
 -0.127306914798795     
 -0.135787854311514     
 -0.388920924900225     
 -0.385822880911129     
 -0.340335921625166     
 -0.396117891572524     
 -0.391082750342340     
  6.621725487477173E-003
 -3.499372506631084E-003
 -0.401045321398017     
  0.744357479020255     
  0.803278078953565     
 -0.394725348729803     
 -0.229576798204438     
 -0.239601502724151     
 -0.304865492041533     
 -0.159011061411614     
 -0.167737258139508     
 -0.189130748792571     
 -0.198559324823672     
 -0.397155975820154     
 -0.112633993039603     
 -0.103833980952112     
 -0.282708744561783     
 -0.277388685367288     
  1.428204745053430E-002
 -0.399430069262174     
  2.557866130761853E-002
  0.790192014592819     
 -0.407488178850041     
  0.731942976998816     
  0.811352820629170     
  4.676237626540315E-002
  3.263669068743921E-002
  0.806887753118856     
  0.321395579045893     
  0.314095018535715     
  0.341577438263122     
  0.334422531861340     
  0.303846896960181     
  0.297334192915695     
 -0.359340155100125     
  4.792858961364392E-002
  0.356644735476077     
  0.349907106786836     
  0.724194001489055     
  0.286446766374797     
  0.282545439636706     
 -0.377974949830539     
 -0.338022561839854     
  6.279224491776736E-002
  0.365368846023081     
  0.372090149497123     
  0.267404586526705     
  0.269289630055613     
  6.745619073185044E-002
  0.812017534163298     
  8.323506661779630E-002
  7.787428940476508E-002
  0.257341475934491     
  0.252823021598724     
 -0.301040607956349     
  0.387277261932745     
  0.380760411352232     
  0.809768293390209     
  0.243571762450258     
  0.237631948414777     
  9.259005620013028E-002
  9.920487822965314E-002
  0.402599122758392     
  0.395911496741658     
  0.703979113181794     
  0.711378796315032     
 -0.413026525595695     
  0.222949439111475     
  0.228072673674113     
  0.811521378148008     
  0.780086734919505     
 -5.244328277643928E-002
  0.107877152841200     
  0.115418386604350     
  0.411015658633576     
  0.417627302184780     
  0.687866199457946     
  0.694736060380661     
  0.213316168961767     
  0.207529658620776     
  0.131134964876401     
  0.122875331864149     
 -0.398802676490809     
 -0.246811451974242     
 -0.255876117899149     
  0.197660163018033     
  0.192529847807651     
 -4.055621087881771E-002
  0.146862153841935     
  0.139424807274136     
  0.175888080940415     
  0.182461755349555     
  0.426279852246575     
  0.433127632129252     
  0.162694355613840     
  0.157697144225041     
  0.672690430026320     
  0.679652820639055     
  0.442065429108249     
  0.448794729539099     
  0.657167007144687     
  0.663800382357624     
  0.465672798090176     
  0.458729093703101     
  0.642274401656849     
  0.649102462614401     
 -7.026217515644000E-002
  0.489303312124585     
  0.482582704429964     
  0.632881382389128     
  0.626293637372630     
  0.610338419069167     
  0.617196086278577     
  0.516415116669785     
  0.509816849624142     
  0.586820904574702     
  0.593521650019388     
 -5.942610689270428E-002
 -0.143148951853385     
 -0.152417214896591     
  0.537278752363121     
  0.543884173732116     
  0.562477303871852     
  0.569330488147309     
  0.799689240910122     
  0.770037987547968     
 -0.320899017948811     
  0.809905036098168     
 -0.417867974979475     
 -0.398430807193860     
 -0.403431673793533     
 -3.575280101225768E-002
 -2.183754509319756E-002
 -0.166801125600152     