 TITLE="euler solver on unstructured grid" 
 VARIABLES= "X" "Y"  "P" "Rou" "U"  "V"  "nuT"
 ZONE NODES=        5306  ELEMENTS=       10382  ZONETYPE=FETRIANGLE
 DATAPACKING=BLOCK
 VARLOCATION=([3-7]=CELLCENTERED)
 -0.272999808451954     
 -0.264981581839416     
 -0.256974498168792     
 -0.248969272845638     
 -0.240965024910873     
 -0.232961411504744     
 -0.224958256435435     
 -0.216955454940245     
 -0.206285156521646     
 -0.195616259295867     
 -0.184946690644725     
 -0.174277400567131     
 -0.163609349776363     
 -0.152940509702192     
 -0.142271857724691     
 -0.131604373604900     
 -0.120936043058415     
 -0.110267852989190     
 -9.960079149166180E-002
 -8.893285023385268E-002
 -7.826502088165679E-002
 -6.759829510096881E-002
 -5.693066813126493E-002
 -4.207294532043608E-002
 -2.721538798705662E-002
 -1.235798303578876E-002
  2.500280247026025E-003
  1.735741019620178E-002
  3.221441752539708E-002
  4.707130818703816E-002
  6.192808932403649E-002
  7.678476807930358E-002
  9.164134921478033E-002
  0.106498839872670     
  0.121355243625845     
  0.136211565235538     
  0.151067809463689     
  0.165923978691271     
  0.180780078870708     
  0.195636112382971     
  0.210493082798807     
  0.225348991310119     
  0.240204842678140     
  0.255060639283839     
  0.269916382317701     
  0.284772074160698     
  0.299627718384286     
  0.314484314987754     
  0.329339866353492     
  0.344195374861762     
  0.359050840512562     
  0.373906265686864     
  0.388761651575152     
  0.403616998177428     
  0.418473306683467     
  0.433328578285172     
  0.448183812981834     
  0.463039011963939     
  0.477894176421971     
  0.492749305165447     
  0.507604398194364     
  0.522460456698501     
  0.537315480679275     
  0.552170468945491     
  0.567025422687635     
  0.581880339524736     
  0.596735221837765     
  0.611590066055266     
  0.626445873367016     
  0.641300643774432     
  0.656155373705350     
  0.671010064350254     
  0.685864714518660     
  0.700719321829597     
  0.715573886283065     
  0.726999482920233     
  0.715567095755215     
  0.700707681264850     
  0.685848309631954     
  0.670988980856526     
  0.656129692557598     
  0.641270443544682     
  0.626411235008265     
  0.611551063377598     
  0.596691928651267     
  0.581832832020463     
  0.566973769913731     
  0.552114744712041     
  0.537255754034424     
  0.522396799071365     
  0.507536878633086     
  0.492677992718170     
  0.477819142517812     
  0.462960328032012     
  0.448101548070284     
  0.433242803823113     
  0.418384096480984     
  0.403524426044608     
  0.388665793703050     
  0.373807200647505     
  0.358948646877974     
  0.344090133584941     
  0.329231663149377     
  0.314373235571282     
  0.299513853232335     
  0.284655518512089     
  0.269797231411253     
  0.254938995501282     
  0.240080813163148     
  0.225222685587335     
  0.210364615154814     
  0.195505606628235     
  0.180647661196665     
  0.165789782432268     
  0.150931972716016     
  0.136074238000335     
  0.121216580666195     
  0.106359005475537     
  9.150051719101014E-002
  7.664311938265382E-002
  6.178581919408772E-002
  4.692862138725287E-002
  3.207153310506076E-002
  1.721456149042288E-002
  2.357712495765456E-003
 -1.250000316383563E-002
 -2.735657715640096E-002
 -4.221299876685462E-002
 -5.706925489985895E-002
 -6.773561281228933E-002
 -7.840087191515280E-002
 -8.906702744509117E-002
 -9.973307106941630E-002
 -0.110397994455440     
 -0.121063789268349     
 -0.131729443603998     
 -0.142393944367759     
 -0.153059277272391     
 -0.163724422080355     
 -0.174388356173138     
 -0.185053050977678     
 -0.195717467208671     
 -0.206380554866443     
 -0.217044241329979     
 -0.225041428496744     
 -0.233038262089390     
 -0.241034637345216     
 -0.249030378072405     
 -0.257025141411207     
 -0.265018046402537     
  -10.2610878697021     
  -9.26108857832990     
  -8.26108928695771     
  -7.26108999558552     
  -6.26109070421334     
  -5.26109141284115     
  -4.26109212146896     
  -3.26109283009678     
  -2.26109353872459     
  -1.26109424735240     
 -0.261094955980214     
  0.738904335391973     
   1.73890362676416     
   2.73890291813635     
   3.73890220950853     
   4.73890150088072     
   5.73890079225291     
   6.73890008362509     
   7.73889937499728     
   8.73889866636947     
   9.73889795774166     
   9.73770747249448     
   9.73651698724731     
   9.73532650200013     
   9.73413601675296     
   9.73294553150579     
   9.73175504625861     
   9.73056456101144     
   9.72937407576426     
   9.72818359051709     
   9.72699310526992     
   9.72580262002274     
   9.72461213477557     
   9.72342164952839     
   9.72223116428122     
   9.72104067903405     
   9.71985019378687     
   9.71865970853970     
   9.71746922329252     
   9.71627873804535     
   9.71508825279818     
   8.71508896142599     
   7.71508967005380     
   6.71509037868161     
   5.71509108730943     
   4.71509179593724     
   3.71509250456505     
   2.71509321319287     
   1.71509392182068     
  0.715094630448493     
 -0.284904660923694     
  -1.28490395229588     
  -2.28490324366807     
  -3.28490253504025     
  -4.28490182641244     
  -5.28490111778463     
  -6.28490040915682     
  -7.28489970052900     
  -8.28489899190119     
  -9.28489828327338     
  -10.2848975746456     
  -10.2837070893984     
  -10.2825166041512     
  -10.2813261189040     
  -10.2801356336569     
  -10.2789451484097     
  -10.2777546631625     
  -10.2765641779153     
  -10.2753736926682     
  -10.2741832074210     
  -10.2729927221738     
  -10.2718022369267     
  -10.2706117516795     
  -10.2694212664323     
  -10.2682307811851     
  -10.2670402959380     
  -10.2658498106908     
  -10.2646593254436     
  -10.2634688401964     
  -10.2622783549493     
 -0.221516397951610     
 -0.221776004114594     
 -0.212358984178432     
 -0.212581445297382     
 -0.230474122095275     
 -0.230157236731415     
 -0.218033666286013     
 -0.218419977769495     
 -0.202577958364346     
 -0.202379991343097     
 -0.239440061549691     
 -0.239059521519307     
 -0.226590675955817     
 -0.227074121617381     
 -0.208943237580965     
 -0.209271037613914     
 -0.248292934176341     
 -0.248679845086987     
 -0.192239216190568     
 -0.192059348751944     
 -0.235808533485240     
 -0.236451972695576     
 -0.276101819810227     
 -0.275152030624281     
 -0.257837474742670     
 -0.257618687970400     
 -0.215698013450251     
 -0.216198590501643     
 -0.198981876398402     
 -0.199261818067286     
 -0.223014767823793     
 -0.223581889163304     
 -0.282821694507106     
 -0.282239281131931     
 -0.181869837726178     
 -0.181702239522738     
 -0.266634060450245     
 -0.266636597499504     
 -0.284092316321580     
 -0.281966288723985     
 -0.246935152384700     
 -0.246119055488156     
 -0.289500307934833     
 -0.206134202811413     
 -0.206553732371482     
 -0.275528903521005     
 -0.273524894198831     
 -0.171627173814142     
 -0.171465515923221     
 -0.291901096911889     
 -0.188700263899721     
 -0.188942740997497     
 -0.230925713401290     
 -0.231700299369536     
 -0.290899844355242     
 -0.223733064735762     
 -0.224475161109914     
 -0.161350274094399     
 -0.161189330207463     
 -0.257769994425066     
 -0.256969297245290     
 -0.291037669620044     
 -0.214221717970554     
 -0.214842473941563     
 -0.293351871581985     
 -0.195612252620594     
 -0.195959193835536     
 -0.150759540191999     
 -0.150597280430118     
 -0.178742958199253     
 -0.178960453684809     
 -0.284732043226852     
 -0.267844025202120     
 -0.267811705812540     
 -0.241902843122897     
 -0.243042620735389     
 -0.299521397375374     
 -0.278827121663155     
 -0.139850152583891     
 -0.139687885761556     
 -0.300977116456499     
 -0.301962137908758     
 -0.276515331490961     
 -0.203251943799517     
 -0.203749167318582     
 -0.169257670015770     
 -0.169465953055985     
 -0.128637721196323     
 -0.128797536264190     
 -0.224023760492220     
 -0.224950712787893     
 -0.185054871394007     
 -0.185346374587607     
 -0.293661194207523     
 -0.234378625613364     
 -0.235519792957332     
 -0.117753912434727     
 -0.117599965197124     
 -0.254576328693314     
 -0.256172271043098     
 -0.159466917910930     
 -0.159258421832195     
 -0.302138359561009     
 -0.291243715178847     
 -0.303590051512916     
 -0.106811748769468     
 -0.106667949124991     
 -0.212360804533169     
 -0.213075909593333     
 -0.191870679213374     
 -0.191472023669535     
 -0.148443900630339     
 -0.148237057710274     
 -0.303626989230845     
 -0.176242970133318     
 -0.176499272647550     
 -9.591446840476675E-002
 -9.578604861354309E-002
 -0.285108639475016     
 -0.311351660481284     
 -0.267284770339962     
 -0.269084262779986     
 -0.309826788099586     
 -0.310703682852182     
 -0.303907239484670     
 -0.136990566505030     
 -0.136789613182813     
 -0.279415667887495     
 -8.523774264280777E-002
 -8.512848913643484E-002
 -0.313368460097527     
 -0.315342860615537     
 -0.168889233207148     
 -0.168625229412250     
 -7.481467920577439E-002
 -7.473236363602810E-002
 -0.200151889267523     
 -0.199600506273595     
 -0.314738487265076     
 -0.125417665196996     
 -0.125228339455878     
 -0.279137369261002     
 -0.249466915610718     
 -0.251409704102547     
 -0.223229989735569     
 -0.224258097694848     
 -0.179500852147823     
 -0.179826432752800     
 -0.291374847369793     
 -6.369764579038423E-002
 -6.365719968209070E-002
 -0.236060568694395     
 -0.237472942064729     
 -0.113891375933873     
 -0.114061453609625     
 -0.157899982468266     
 -0.157636000011455     
 -0.291941402638209     
 -5.084406731878550E-002
 -5.083265861152293E-002
 -0.317777337345851     
 -0.315792169845024     
 -0.103041809880389     
 -0.102900145379770     
 -0.322723962161955     
 -0.209695204746387     
 -0.210453942532874     
 -0.145714995415254     
 -0.145461905992681     
 -3.666568378214004E-002
 -3.660169073162516E-002
 -0.301768080569533     
 -0.186163450390988     
 -0.185727206440880     
 -0.324105527548985     
 -0.265561367248978     
 -0.268708480459680     
 -9.163283547440428E-002
 -9.153354259189544E-002
 -0.305367530682726     
 -2.195693776615372E-002
 -2.185154976497310E-002
 -0.326496907142585     
 -0.133512341582773     
 -0.133750486890484     
 -8.163840802349405E-002
 -8.157557322916698E-002
 -0.329537360197986     
 -0.279210586697798     
 -0.328900297492198     
 -0.169827616046921     
 -0.170176805165666     
 -0.284765555054363     
 -6.923687934962179E-003
 -6.802982697556741E-003
 -7.222443246850635E-002
 -7.223356302756612E-002
 -0.120985092469958     
 -0.121195370920373     
 -0.194980820609734     
 -0.195562948243147     
  8.283819984188454E-003
  8.375044876357185E-003
 -0.315188216024134     
 -0.237016943014581     
 -0.235569756632993     
 -0.221498159035439     
 -0.222522041330363     
 -5.956337099032848E-002
 -5.967980130191156E-002
 -0.249509274097024     
 -0.251612795567593     
 -0.319843019294502     
  2.352249116506832E-002
  2.353370370394794E-002
  0.322744572598727     
  0.322524922875934     
 -0.110202558819093     
 -0.110030725718915     
  0.337420059451164     
  0.337238587340970     
  0.308164683536504     
  0.307866747656371     
  3.873762197788156E-002
  3.853852302463638E-002
  0.726587075619851     
  0.727025822533238     
 -0.154723258060684     
 -0.154399772297130     
 -0.292285892957777     
 -4.591142592208215E-002
 -4.614536218195822E-002
  0.352222409546731     
  0.352053561139055     
  0.293574536625588     
  0.293161054612358     
 -0.333003412102276     
  5.385315769387924E-002
  5.344167567865185E-002
  0.366942623337755     
  0.367108244820278     
 -0.329639547959278     
  0.278898353347598     
  0.278364673180324     
  0.381871180866403     
  0.382032267684878     
  6.834021143103652E-002
  6.888369025496852E-002
  0.711807640531457     
  0.712227963099632     
  0.264135553345133     
  0.263525796303082     
  0.396825217068128     
  0.396976506605882     
  0.696552910890643     
  0.696918471658172     
  0.249312707670552     
  0.248690502400181     
  8.386256951888385E-002
  8.330532070828565E-002
  0.411805321823378     
  0.411942080392179     
  0.234445114765382     
  0.233848740883086     
  0.681308431000727     
  0.681612251528669     
  9.883181486077255E-002
  9.833177232420240E-002
  0.426815803343455     
  0.426935984157818     
  0.219532679034491     
  0.218965899038121     
  0.666159240684394     
  0.666404908474261     
  0.113830724109912     
  0.113394668558353     
  0.204562598463122     
  0.204017591406499     
  0.441847987944248     
  0.441951891597541     
  0.128891372481462     
  0.128484188822289     
  0.651082856506164     
  0.651277400364402     
  0.189518153539152     
  0.188992442758389     
  0.144026006752016     
  0.143602922042653     
  0.174393195933203     
  0.173893192735039     
  0.456857298990873     
  0.456946976908145     
  0.159211358723210     
  0.158748482745066     
  0.636033017308667     
  0.636183174017354     
  0.471780600218244     
  0.471858473824866     
  0.620976914781747     
  0.621088329457138     
 -9.969234832301943E-002
 -9.957217916951502E-002
 -0.337808775808368     
  0.486669575455625     
  0.486601796160783     
 -0.267237865720600     
 -0.264064038389035     
  0.605919220469479     
  0.605996289776758     
  0.501364823572542     
  0.501423044627787     
  0.590935640789175     
  0.590888546256446     
  0.516127774912294     
  0.516175389515659     
  0.575898628094668     
  0.575877344410337     
  0.530941665739255     
  0.530976795916897     
  0.560857874689019     
  0.560858489831117     
  0.545870724276563     
  0.545851237093492     
 -3.150967400166156E-002
 -3.185455157607750E-002
 -0.335759125132361     
 -0.329797460393926     
 -0.299633436409824     
 -0.142216876756920     
 -0.142513468267172     
 -0.179373066878631     
 -0.178901131031078     
 -0.206353057805443     
 -0.207110491712232     
 -0.335433694138895     
 -0.341532141938527     
 -8.434630385003736E-002
 -8.433635174230235E-002
 -1.640571567069848E-002
 -1.682467280620050E-002
 -0.342560506158274     
 -0.306202631004379     
  0.741583834227453     
  0.741910416572644     
 -0.345771476983524     
 -0.343227522164919     
 -0.130438755538426     
 -0.130718734761725     
 -1.288366423759033E-003
 -0.278569674022650     
 -8.620357414007310E-004
 -0.344586806245517     
  0.740922685679915     
 -0.283462873901175     
 -0.164364327393953     
 -0.163959337096240     
 -0.349368144145042     
 -6.937776509773441E-002
 -6.954890360428335E-002
  1.442355590080844E-002
  1.475236592866677E-002
 -0.314218232712113     
 -0.113084910242583     
 -0.112883142017917     
  0.739943111511117     
 -0.235744490853736     
 -0.234414615754733     
 -5.544157356967981E-002
 -5.580272439095540E-002
 -0.321006372231148     
 -0.190098302380549     
 -0.189494601970751     
  3.011585635202879E-002
  0.316000489142521     
  0.316369377851327     
  0.330412588700833     
  0.330676237586298     
  3.009037837222547E-002
  0.302181182202794     
  0.301603507902824     
  0.345322103272400     
  0.345090424617097     
  4.508489419816020E-002
  4.557525299349150E-002
 -0.219546950741212     
 -0.220500296131608     
 -0.248506346078884     
 -0.250427895617025     
  0.287804508952406     
  0.286940706730615     
  0.360212248188326     
  0.359980615979411     
  6.084417312364582E-002
  5.990801607363477E-002
  0.757519565183314     
  0.272088111885091     
  0.273194868010230     
  0.374962892873253     
  0.375195357917371     
 -0.348908495315531     
  0.757670182637310     
  0.723753613980667     
  0.724691547008239     
  7.595947574346373E-002
  7.489544687953802E-002
  0.257256442145659     
  0.258443577287064     
  0.389992107949268     
  0.390213208930001     
  0.707754035946180     
  0.708583512312782     
  0.243603535078742     
  0.242473702014657     
  0.405259671945435     
  0.405062514544474     
 -4.163456921021508E-002
 -4.219714448358339E-002
  9.006148672728000E-002
  9.101381197819194E-002
  0.692631564183253     
  0.691929214684775     
  0.227639113705710     
  0.228686859710162     
  0.420357564328598     
  0.420191806812950     
  0.105312564611980     
  0.106092188315266     
  0.676960028479158     
  0.676378327392045     
  0.212680111794335     
  0.213676565955389     
  0.120610529369770     
  0.121273278865387     
  0.435398027242265     
  0.435531244990461     
 -0.292188302511861     
  0.661045872681232     
  0.661522353087700     
  0.197570931060986     
  0.198532848009247     
  0.136619807512045     
  0.135956426832794     
 -0.147693540346144     
 -0.147298150859293     
  0.182289525569352     
  0.183211150426659     
  0.152133014491129     
  0.151376658887118     
  0.450651160378200     
  0.450755525257659     
  0.166856207329781     
  0.167713028443414     
  0.645813168137415     
  0.646199388092063     
  0.465865930722313     
  0.465784374434783     
  0.630884206067793     
  0.630575921215512     
 -0.353475375976272     
  0.480709568161153     
  0.480645656541771     
  0.615524265862132     
  0.615284860997466     
  0.495309448310932     
  0.495358092763620     
  0.600019980759039     
  0.600197867539476     
 -0.263176820400546     
 -0.266027918656175     
  0.509923729875334     
  0.509956425498624     
  0.584874834125690     
  0.584999954959819     
  0.524605644627690     
  0.524592025447533     
  0.569790252983011     
  0.569708992865025     
  0.539405617222633     
  0.539416670907690     
  0.554512874508400     
  0.554469638440394     
  0.756631884863075     
 -0.345445100097614     
 -0.352190867798697     
 -0.298182744990985     
 -2.752259271240031E-002
 -2.677458393123990E-002
 -9.586966343740891E-002
 -9.593557743712429E-002
 -0.329371397537459     
 -0.358156460951735     
 -0.336911235532470     
 -0.169863673888492     
 -0.169346434316258     
 -0.202753028174441     
 -0.203490746816683     
 -0.354961132222017     
 -1.159396778997039E-002
 -1.075876922465517E-002
  0.756179497616064     
  0.754454088495722     
 -0.306270350315701     
 -0.362707811367671     
 -8.019627237369900E-002
 -8.004591991516477E-002
 -0.358314188554249     
  4.712402571128050E-003
 -0.282091596000098     
 -0.125800101171178     
 -0.126132376023889     
  5.540728860511654E-003
 -0.360693313826417     
 -0.359212164558030     
 -0.277880979231167     
  0.738528775297637     
 -0.366796097340155     
 -6.523567080064496E-002
 -6.477291565047648E-002
 -0.234507734460298     
 -0.235672905230089     
  2.169558574662422E-002
  2.102316018426336E-002
 -0.312872527053758     
 -0.345514594757584     
  0.736924405136845     
 -0.354142831582724     
  0.323628860394292     
  0.323960265694629     
  0.309918247361757     
  0.310470245499371     
  3.697714302013747E-002
  0.772424264863255     
  3.707454928515735E-002
  0.337938781922470     
  0.338208471788557     
  0.296697957300095     
  0.295689648614157     
  0.353148826077901     
  0.352861238615449     
  0.774158140075231     
  5.140710862778761E-002
  5.269191869094881E-002
 -5.153223039454652E-002
 -5.222970655905793E-002
  0.282287672648185     
  0.280696394220797     
  0.368222692530483     
  0.367912570101173     
  0.774071897191852     
 -0.321112297814162     
  6.795873013121731E-002
  6.616101483124096E-002
 -0.364235896448071     
  0.265706608521848     
  0.267618165440852     
  0.383016759646825     
  0.383322946461768     
  0.719706223567750     
  0.721121324251787     
  0.251016177493008     
  0.252824669153972     
  8.148208551760389E-002
  8.306856942187830E-002
  0.398153967384348     
  0.398428582293018     
 -0.185168639014143     
 -0.184523834257327     
  0.702920403704123     
  0.704121403407731     
  0.237941234359076     
  0.236352673109480     
 -0.107812467720311     
 -0.107612524393354     
  9.816034527409415E-002
  9.693198397337682E-002
  0.774666595862372     
  0.413575488809065     
  0.413350233294791     
  0.687763819379028     
  0.686762958388350     
 -0.248272591808643     
 -0.246650955589019     
  0.221471183284474     
  0.222955403089151     
  0.113353645817309     
  0.112439901914502     
  0.428838336671037     
  0.428667689953443     
  0.206368368377999     
  0.207817204903662     
  0.671128916152426     
  0.671960479841392     
  0.127976883288773     
  0.128780523814697     
  0.191022250191526     
  0.192429734633141     
  0.144563030964252     
  0.143595841748451     
  0.176684182591874     
  0.175338021412056     
  0.444168245531620     
  0.444288911541400     
  0.160632626477543     
  0.159417443399056     
  0.655745888262556     
  0.656435322369217     
 -0.370207813066392     
 -0.217570124830144     
 -0.218420136108140     
  0.459812339821255     
  0.459892862847174     
  0.640970382830710     
  0.640402306892739     
  0.474926583183060     
  0.474980068560544     
  0.625392405872825     
  0.624931007279941     
 -0.369821916267074     
  0.489443111249849     
  0.489475381602323     
 -0.362315969291050     
  0.609255463286033     
  0.609619204769859     
 -3.986905169464992E-002
 -3.879127602013647E-002
  0.503853531293196     
  0.503865495912462     
  0.593853994568074     
  0.594127655616419     
  0.518272820494174     
  0.518260639983683     
  0.579052891282399     
  0.578849973192073     
  0.532807472045048     
  0.532850523032894     
  0.563413603654417     
  0.563269793775645     
  0.547649516518864     
  0.547735222137260     
 -0.291673313906862     
 -0.154853369256101     
 -0.154320027376097     
  0.769897908040586     
 -0.261493252851919     
 -0.263820250396314     
 -9.077494284517072E-002
 -9.073768163399196E-002
 -0.296619938411709     
 -2.305276976923770E-002
 -2.170785958087492E-002
 -0.362995087579318     
  0.753737652727856     
 -0.138419100913698     
 -0.137924953387350     
 -0.375260322369398     
 -0.328066959120640     
 -0.337312656964176     
 -0.371120381723172     
  0.772632325482220     
 -0.372810570306127     
 -5.851684796452790E-003
 -4.508224878008768E-003
 -7.561270667526072E-002
 -0.374835934040534     
 -7.523296060697997E-002
  0.751259997378212     
 -0.167493035871731     
 -0.166863743271956     
 -0.199615061521893     
 -0.198877512294397     
 -0.380550178447546     
 -0.305181213181928     
 -0.373038835798897     
 -0.277372523234205     
 -0.280875808822925     
 -0.378199984579827     
 -0.235405525600191     
 -0.234505229400618     
  1.130106389077930E-002
  1.275955847659436E-002
  0.788835734195700     
 -0.118721572686457     
 -0.119123927230074     
 -0.380600969863615     
  0.734888790670373     
 -0.385435495989208     
 -0.355154663759140     
  2.986235255757738E-002
  2.828717554544445E-002
  0.317354103415133     
  0.317698939768239     
  0.330076429973644     
  0.330300888957979     
 -5.826188746520012E-002
  0.305165760943693     
  0.305893811736414     
  4.353413575721832E-002
  0.791781512235487     
 -0.310537926739888     
 -0.344529538508555     
 -5.715214730620346E-002
  0.732716607827036     
  4.454748877672055E-002
  0.345484120007707     
  0.345787882509799     
  0.289749772193443     
  0.291547579187395     
  0.791068153718865     
  5.661751562177132E-002
  0.361068645366685     
  0.360676476390379     
  5.994060607742075E-002
  0.276877115555025     
  0.273943819926110     
  0.375890275857610     
  0.376306038129684     
  7.249978447604867E-002
  7.506013214599014E-002
  0.259181204433889     
  0.262109960561010     
 -0.380518514180736     
 -0.389582344159331     
  0.391102160565833     
  0.391482330458123     
  0.714392965961881     
  0.716230457543201     
  0.245069324896107     
  0.247269633118245     
  0.792627522915407     
  8.819066478138858E-002
  9.009501922908825E-002
  0.406316521462580     
  0.406625006263459     
  0.232348923589731     
  0.230386115762103     
  0.792392415431878     
  0.697141198797350     
  0.698660884733903     
  0.105199335550608     
  0.103958870632374     
 -0.101760492565262     
  0.215333581651509     
  0.217300577485524     
 -0.101944771307074     
  0.421851759509859     
  0.421631166930992     
  0.120501598876769     
  0.119708052689614     
  0.681190852615540     
  0.682462601073500     
  0.200056501628222     
  0.202037379630038     
 -0.150803972987939     
 -0.150152109705211     
  0.135418626559858     
  0.136283069007931     
  0.184423186022912     
  0.186308350796531     
  0.151306400422750     
  0.152866620119012     
  0.437335971502047     
  0.437196300913114     
  0.167920533533326     
  0.169800839539461     
 -0.319730090037512     
  0.665715849313196     
  0.666788604183490     
  0.770324941081166     
  0.453222567903738     
  0.453294581608768     
  0.650396358640517     
  0.651300977874624     
  0.470068291821635     
  0.470092349327291     
  0.635705448427077     
  0.634946031752389     
  0.483761681214789     
  0.483769043515968     
 -0.215796855775044     
 -0.215036588101385     
  0.619715877353648     
  0.619089585509859     
 -0.255646361383205     
 -0.254142212033592     
  0.498096977059450     
  0.498123998293554     
  0.602301667899662     
  0.602796503490853     
  0.512015189798484     
  0.511972543378854     
  0.587756854977081     
  0.588117157478150     
  0.526372715682757     
  0.526281969323824     
  0.573562062582463     
  0.573870870978479     
  0.540565479407954     
  0.540688759975650     
  0.555301154942219     
  0.555510064449693     
 -0.180428284209958     
 -0.179696374054810     
 -0.386862507738969     
 -3.623393779128341E-002
 -3.411109736192340E-002
  0.786062291603343     
 -0.290892002530006     
 -0.381959016374796     
  0.766743105834526     
 -8.378303214388622E-002
 -8.356135273534873E-002
 -0.374580305028260     
  0.790079416447215     
 -0.362636201495697     
 -0.325296605322219     
 -0.294985408173458     
 -1.754778183481060E-002
 -0.393068182106019     
 -1.547775665531206E-002
  0.750316775429589     
 -0.131933051517421     
 -0.131290155891319     
 -0.389705208560549     
 -0.387197150523615     
 -0.336563355508170     
 -0.392928788479370     
 -0.392975750043312     
  2.415077201682587E-003
  7.632780580138160E-004
 -0.399672507841868     
  0.747171875473722     
  0.805516037868390     
 -0.397261062088949     
 -0.234986712174530     
 -0.234433980551487     
 -0.301148806459924     
 -0.163825388019774     
 -0.163076520691729     
 -0.194348794488696     
 -0.193523911493701     
 -0.400374511049203     
 -0.108033282580871     
 -0.108549137762131     
 -0.278868644474608     
 -0.281586254360272     
  1.857001342123614E-002
 -0.395522800819859     
  2.136943781416267E-002
  0.788032151259272     
 -0.405479887097464     
  0.729794637778137     
  0.810146799694319     
  4.265593811632331E-002
  3.692146148465873E-002
  0.808459819382162     
  0.317909204052587     
  0.317838952565232     
  0.338047701908203     
  0.338253368361462     
  0.300288500209498     
  0.301088133012325     
 -0.355259993469358     
  5.210582342669851E-002
  0.353200769885557     
  0.353668152652048     
  0.727130865431014     
  0.282632135262361     
  0.286440116057716     
 -0.382317100510458     
 -0.342345703477968     
  6.704095512545656E-002
  0.369182459291503     
  0.368602542645965     
  0.271276738464688     
  0.265617632723743     
  6.326807955276423E-002
  0.811508100496012     
  7.910311620411900E-002
  8.204483018084073E-002
  0.253657080006681     
  0.256824798034280     
 -0.305182005713837     
  0.383922278258010     
  0.384449061169777     
  0.810655913205758     
  0.239743805656242     
  0.241607896549579     
  9.685212185746156E-002
  9.499591908220134E-002
  0.399206063484746     
  0.399647787317072     
  0.706961967478724     
  0.709139679889273     
 -0.410342252724417     
  0.227059112855766     
  0.224261520087322     
  0.811712574976046     
  0.783192226463546     
 -4.792051294974039E-002
  0.112077099499274     
  0.111319275880512     
  0.414647364152915     
  0.414353808738399     
  0.690776102618369     
  0.692535122384412     
  0.209364477744624     
  0.211618192602745     
  0.126973538337045     
  0.127189129419302     
 -0.398971481204196     
 -0.251864209980927     
 -0.251110882786362     
  0.193722905502144     
  0.196767703770531     
 -4.515311277737170E-002
  0.142798133937334     
  0.143700906751980     
  0.180125383185024     
  0.178362147171736     
  0.429972802119438     
  0.429807985627541     
  0.158545129654280     
  0.162154420753387     
  0.675723737968712     
  0.677303073490843     
  0.445657091209107     
  0.445595553523228     
  0.660164879580504     
  0.661458351033096     
  0.462420543962408     
  0.462392500560534     
  0.645417223650221     
  0.646594238539948     
 -6.555856015344541E-002
  0.486203163106127     
  0.486122085131248     
  0.630366686825270     
  0.629418327126958     
  0.613635424081887     
  0.614488690875737     
  0.513421082181498     
  0.513280534310677     
  0.590147880619584     
  0.590753108393934     
 -6.423851265122799E-002
 -0.148291575323368     
 -0.147412919661875     
  0.540707831526754     
  0.540955141853210     
  0.565954182338334     
  0.566382880967746     
  0.802579752059397     
  0.767614559100246     
 -0.316800389651236     
  0.808016026704185     
 -0.414472084811750     
 -0.402365957362942     
 -0.403085546697853     
 -3.105313199213660E-002
 -2.653567433804766E-002
 -0.172082904933034     