 TITLE="euler solver on unstructured grid" 
 VARIABLES= "X" "Y"  "P" "Rou" "U"  "V"  "nuT"
 ZONE NODES=        5306  ELEMENTS=       10382  ZONETYPE=FETRIANGLE
 DATAPACKING=BLOCK
 VARLOCATION=([3-7]=CELLCENTERED)
 -0.272883103699094     
 -0.265334663504323     
 -0.257512339126162     
 -0.249644338122972     
 -0.241752313731473     
 -0.233844693157310     
 -0.225925807047826     
 -0.217998230382522     
 -0.207417056136549     
 -0.196827020461329     
 -0.186227909142234     
 -0.175621950718554     
 -0.165011110379404     
 -0.154394091248318     
 -0.143772448858581     
 -0.133147680221216     
 -0.122518137326189     
 -0.111885141617738     
 -0.101249985278973     
 -9.061087399420563E-002
 -7.996901216315189E-002
 -6.932560418552836E-002
 -5.867876796225492E-002
 -4.384615456480489E-002
 -2.900947387018702E-002
 -1.416904775083901E-002
  6.758600148641992E-004
  1.552304545540485E-002
  3.037324479240801E-002
  4.522631172022017E-002
  6.008207067205711E-002
  7.494034608113459E-002
  8.980102090292974E-002
  0.104664919142460     
  0.119529953872730     
  0.134397007621019     
  0.149265963342803     
  0.164136762515822     
  0.179009258834422     
  0.193883393776341     
  0.208760079129988     
  0.223637286490631     
  0.238515898385548     
  0.253395856292477     
  0.268277130950288     
  0.283159663836719     
  0.298043367168379     
  0.312929240517067     
  0.327815226216922     
  0.342702265317481     
  0.357590357818746     
  0.372479445198455     
  0.387369498195477     
  0.402260516809812     
  0.417153471352132     
  0.432046333417701     
  0.446940102578323     
  0.461834749572865     
  0.476730245140198     
  0.491626618541453     
  0.506523869776628     
  0.521422969156395     
  0.536321917537151     
  0.551221743751828     
  0.566122418539296     
  0.581024000421815     
  0.595926430877125     
  0.610829797688617     
  0.625735071166963     
  0.640640252168559     
  0.655546428048599     
  0.670453569545952     
  0.685361705921749     
  0.700270895698252     
  0.715181138875460     
  0.726688697738862     
  0.715348044364996     
  0.700557011034276     
  0.685764924302851     
  0.670971784170721     
  0.656177649160147     
  0.641382548532259     
  0.626586453025928     
  0.611788450852743     
  0.596990541156308     
  0.582191695103691     
  0.567392000478283     
  0.552591398757823     
  0.537789948464573     
  0.522987620337401     
  0.508183444065638     
  0.493379418792886     
  0.478574515686213     
  0.463768734745618     
  0.448962105232233     
  0.434154597884927     
  0.419346183442570     
  0.404535862333359     
  0.389725604439767     
  0.374914380928861     
  0.360102191800643     
  0.345289007793980     
  0.330474770386612     
  0.315659479578539     
  0.300842077275698     
  0.286024504099429     
  0.271205760477933     
  0.256385758627817     
  0.241564440026818     
  0.226741775413808     
  0.211917706266523     
  0.197091115968641     
  0.182263974402632     
  0.167435194213304     
  0.152604716878396     
  0.137772396092253     
  0.122938173332614     
  0.108101931554957     
  9.326255414295659E-002
  7.842195245682440E-002
  6.357895135797442E-002
  4.873343380188391E-002
  3.388522422176862E-002
  1.903414705084433E-002
  4.180055983457533E-003
 -1.067831190236953E-002
 -2.553916229094897E-002
 -4.040375810425850E-002
 -5.527242121473591E-002
 -6.595044980333986E-002
 -7.662990749399076E-002
 -8.731291047481439E-002
 -9.799866400192421E-002
 -0.108686373331434     
 -0.119378242434861     
 -0.130073564351711     
 -0.140771661382620     
 -0.151474883804760     
 -0.162182729485551     
 -0.172894754814676     
 -0.183613661202874     
 -0.194339414695656     
 -0.205072244688711     
 -0.215815935254615     
 -0.223881507412318     
 -0.231955770125841     
 -0.240041298374685     
 -0.248142422806194     
 -0.256267570626012     
 -0.264438395070858     
  -10.5612124251191     
  -9.56164062368113     
  -8.56206882224317     
  -7.56249702080521     
  -6.56292521936726     
  -5.56335341792930     
  -4.56378161649135     
  -3.56420981505339     
  -2.56463801361543     
  -1.56506621217748     
 -0.565494410739521     
  0.434077390698436     
   1.43364919213639     
   2.43322099357435     
   3.43279279501230     
   4.43236459645026     
   5.43193639788822     
   6.43150819932617     
   7.43108000076413     
   8.43065180220209     
   9.43022360364004     
   9.45948473434408     
   9.48874586504813     
   9.51800699575217     
   9.54726812645621     
   9.57652925716025     
   9.60579038786430     
   9.63505151856834     
   9.66431264927238     
   9.69357377997643     
   9.72283491068047     
   9.75209604138451     
   9.78135717208855     
   9.81061830279260     
   9.83987943349664     
   9.86914056420068     
   9.89840169490472     
   9.92766282560877     
   9.95692395631281     
   9.98618508701685     
   10.0154462177209     
   9.01587441628294     
   8.01630261484498     
   7.01673081340703     
   6.01715901196907     
   5.01758721053111     
   4.01801540909316     
   3.01844360765520     
   2.01887180621725     
   1.01930000477929     
  1.972820334133274E-002
 -0.979843598096623     
  -1.97941539953458     
  -2.97898720097254     
  -3.97855900241049     
  -4.97813080384845     
  -5.97770260528640     
  -6.97727440672436     
  -7.97684620816232     
  -8.97641800960027     
  -9.97598981103823     
  -10.0052509417423     
  -10.0345120724463     
  -10.0637732031504     
  -10.0930343338544     
  -10.1222954645584     
  -10.1515565952625     
  -10.1808177259665     
  -10.2100788566706     
  -10.2393399873746     
  -10.2686011180787     
  -10.2978622487827     
  -10.3271233794867     
  -10.3563845101908     
  -10.3856456408948     
  -10.4149067715989     
  -10.4441679023029     
  -10.4734290330070     
  -10.5026901637110     
  -10.5319512944150     
 -0.222760670526459     
 -0.220341911674141     
 -0.213681868023812     
 -0.211076218417117     
 -0.229104756247576     
 -0.231330162207555     
 -0.219543761574335     
 -0.216722036043313     
 -0.200997560938841     
 -0.203786432748087     
 -0.238144985165494     
 -0.240152132949198     
 -0.228037879712651     
 -0.225432590814470     
 -0.210542527715156     
 -0.207491232292045     
 -0.249278792430019     
 -0.247485945142336     
 -0.190590326345733     
 -0.193543099036003     
 -0.237209232140565     
 -0.234850998148023     
 -0.275663708256467     
 -0.275379112349038     
 -0.256779418401572     
 -0.258460889462761     
 -0.217473961800976     
 -0.214235294330518     
 -0.200669022341378     
 -0.197402563225164     
 -0.224681192165491     
 -0.221722767721033     
 -0.282580749684822     
 -0.282298208953304     
 -0.180161070996464     
 -0.183254787965029     
 -0.267291339586263     
 -0.265745415442687     
 -0.283556092055928     
 -0.282337204349821     
 -0.245406762041848     
 -0.247442976395016     
 -0.289422305212959     
 -0.208022115689582     
 -0.204486232514896     
 -0.274812655908004     
 -0.273994072659508     
 -0.169860659374690     
 -0.173084618580357     
 -0.291566519140856     
 -0.190461373730784     
 -0.187018435439833     
 -0.232610467530300     
 -0.229816836197401     
 -0.291091420792339     
 -0.225642245793971     
 -0.222370803496086     
 -0.159521827373022     
 -0.162879151389891     
 -0.256371267765246     
 -0.258161979302249     
 -0.291578966824202     
 -0.216297479549757     
 -0.212578376800527     
 -0.292700119135810     
 -0.197590547832014     
 -0.193810433136904     
 -0.148870175386740     
 -0.152357041633429     
 -0.180564924153929     
 -0.176983998691520     
 -0.283898132566938     
 -0.266626746790490     
 -0.268815170415314     
 -0.243581945426248     
 -0.241158672475241     
 -0.299457104294743     
 -0.279564369266239     
 -0.137909059030219     
 -0.141508645172587     
 -0.301297925242926     
 -0.301527386875549     
 -0.275498657883170     
 -0.205454710856802     
 -0.201367405097784     
 -0.171157738795506     
 -0.167419566769158     
 -0.130508540052972     
 -0.126815743679732     
 -0.226268001751246     
 -0.222507182337345     
 -0.187091106250116     
 -0.183149120162699     
 -0.292681317610010     
 -0.236378704793216     
 -0.233315057808701     
 -0.115741840389219     
 -0.119510387374917     
 -0.256165742811716     
 -0.254378384318805     
 -0.157328687194667     
 -0.161258820164926     
 -0.302828439720016     
 -0.292180225346455     
 -0.302801240781221     
 -0.104775486742635     
 -0.108611790477963     
 -0.214785609630032     
 -0.210461259309720     
 -0.189417169832346     
 -0.193757291098845     
 -0.146226614196018     
 -0.150325859391130     
 -0.302453516505072     
 -0.178298511191104     
 -0.174290663027044     
 -9.385698141792546E-002
 -9.776033091529043E-002
 -0.284008638306186     
 -0.311462090369468     
 -0.268693520828224     
 -0.267486905490651     
 -0.309602109859488     
 -0.311159141952722     
 -0.305003746532658     
 -0.134715309948767     
 -0.138946043905149     
 -0.280596540544664     
 -8.316776723205757E-002
 -8.712438919607975E-002
 -0.312825743795200     
 -0.314395107507096     
 -0.166536667017490     
 -0.170831005338128     
 -7.271771878487596E-002
 -7.676424310426944E-002
 -0.197420740200332     
 -0.202153730888686     
 -0.315527116711020     
 -0.123101557478084     
 -0.127435291726864     
 -0.277798827157090     
 -0.251537263212952     
 -0.249123424794494     
 -0.225870306820591     
 -0.221413676085587     
 -0.181806072915431     
 -0.177364131652749     
 -0.290046759228694     
 -6.155533658633996E-002
 -6.574424984337175E-002
 -0.238465498019205     
 -0.234854263110616     
 -0.116128025794531     
 -0.111725124073658     
 -0.155412928155998     
 -0.159985550021645     
 -0.293312760870703     
 -5.298113884842340E-002
 -4.865227048462765E-002
 -0.319016074923671     
 -0.314404026503153     
 -0.100680814951581     
 -0.105170611232727     
 -0.322532568261326     
 -0.212515104468118     
 -0.207443147972263     
 -0.143151187866309     
 -0.147898579877344     
 -3.884702039119893E-002
 -3.439101235721610E-002
 -0.300163377428071     
 -0.183375582415474     
 -0.188350555734937     
 -0.324472019390689     
 -0.267418592327458     
 -0.266645305748286     
 -8.924813331660147E-002
 -9.383728148454405E-002
 -0.306918913309887     
 -2.417670031889523E-002
 -1.961779770376112E-002
 -0.325829475142388     
 -0.136017376829083     
 -0.131128282178192     
 -7.928699829085252E-002
 -8.385482930168484E-002
 -0.330419844367249     
 -0.280836139278039     
 -0.327776740181301     
 -0.172439899641262     
 -0.167415123003429     
 -0.282997703751180     
 -9.174445008391464E-003
 -4.554631172223471E-003
 -6.976660399841890E-002
 -7.462723147744356E-002
 -0.123537892249723     
 -0.118535685644882     
 -0.197929649375484     
 -0.192438423316200     
  6.010736409268469E-003
  1.062871688238961E-002
 -0.313320838599992     
 -0.233935468183878     
 -0.238427956480899     
 -0.224574871314128     
 -0.219237323259574     
 -5.703090513025357E-002
 -6.215993679572043E-002
 -0.252115259879859     
 -0.248771585908943     
 -0.321569851599929     
  2.577334496364874E-002
  2.124656734874058E-002
  0.320782757750144     
  0.324217118566251     
 -0.107578776112829     
 -0.112556862013943     
  0.335482735728659     
  0.338891882992856     
  0.306175833613723     
  0.309600651616962     
  3.644324308903393E-002
  4.078187051167493E-002
  0.725829033397424     
  0.727115598224482     
 -0.151846889289441     
 -0.157140269820423     
 -0.294120320073948     
 -4.332480745439232E-002
 -4.869391839840716E-002
  0.350310460611602     
  0.353667672880014     
  0.291555020151561     
  0.294939701816224     
 -0.334386924826625     
  5.155624525389048E-002
  5.567703525964455E-002
  0.368515256978467     
  0.365224570470145     
 -0.328030932588538     
  0.276846581012915     
  0.280187807020128     
  0.383399880389327     
  0.380179726179422     
  7.056801748538359E-002
  6.658692071283698E-002
  0.710952209038027     
  0.712443515288863     
  0.262051991538208     
  0.265390761338015     
  0.398307958763204     
  0.395157236105982     
  0.695625741300138     
  0.697227594724313     
  0.247198551382833     
  0.250595174656396     
  8.156732916548479E-002
  8.552366289804066E-002
  0.413240340562791     
  0.410157737452942     
  0.232301592034823     
  0.235792294855314     
  0.680321035540156     
  0.682000330587001     
  9.653897567106393E-002
  0.100536982473714     
  0.428201122045030     
  0.425188347193549     
  0.217360905270814     
  0.220947849844535     
  0.665116959329007     
  0.666864812238083     
  0.111541196071406     
  0.115583031278398     
  0.202363746315670     
  0.206037093086311     
  0.443180960264261     
  0.440243414696442     
  0.126606685252856     
  0.130652519726002     
  0.649988057679282     
  0.651805641549519     
  0.187293902202850     
  0.191048020830587     
  0.141749045921114     
  0.145748318831723     
  0.172146463546272     
  0.175982357525574     
  0.458134700799979     
  0.455280793255055     
  0.156946764673176     
  0.160867672637444     
  0.634887096503714     
  0.636777646405082     
  0.473000163135998     
  0.470236881670259     
  0.619781494675131     
  0.621746941320706     
 -9.697376061421724E-002
 -0.102201365759878     
 -0.337822614167698     
  0.485092498958190     
  0.487763700866179     
 -0.264648801771430     
 -0.266411222399856     
  0.604676649522023     
  0.606716357174578     
  0.502470848915825     
  0.499888781847066     
  0.591714829927675     
  0.589600856186604     
  0.517179866751722     
  0.514682004241868     
  0.576736000110800     
  0.574545233359545     
  0.531941349214933     
  0.529522692854483     
  0.561751914716771     
  0.559483310054885     
  0.544455300527812     
  0.546798967655972     
 -2.887708593730110E-002
 -3.446602046959608E-002
 -0.335363355729464     
 -0.327679440120528     
 -0.297534586935352     
 -0.144983152071917     
 -0.139621816331499     
 -0.176193890829492     
 -0.181920805392789     
 -0.209613043594468     
 -0.203659975166435     
 -0.337338389201418     
 -0.342036298823266     
 -8.160499768601669E-002
 -8.700116580357700E-002
 -1.373786638443538E-002
 -1.949089577812688E-002
 -0.341758047552166     
 -0.308239628896514     
  0.740976198148117     
  0.741799313663763     
 -0.346781864818504     
 -0.341902551065741     
 -0.133336157829247     
 -0.127705302188916     
 -3.994928210025304E-003
 -0.280666484814130     
  1.824979131761988E-003
 -0.342760293768576     
  0.741316713844712     
 -0.281124715623079     
 -0.161195407319012     
 -0.166982956750200     
 -0.350902132915996     
 -6.650343744435626E-002
 -7.235966357122532E-002
  1.169151649409993E-002
  1.744261154267340E-002
 -0.311836728455543     
 -0.110051826164132     
 -0.115814291926165     
  0.738817539660004     
 -0.232196826731122     
 -0.237732235003031     
 -5.249650325373498E-002
 -5.869837220272112E-002
 -0.323248022163496     
 -0.186527200271404     
 -0.192893979795567     
  3.279694283466240E-002
  0.318133851146482     
  0.313980547088292     
  0.332511403150963     
  0.328305082230325     
  2.734566704466371E-002
  0.299762752418328     
  0.303783731515588     
  0.342965762163007     
  0.347158758850691     
  4.775578431020818E-002
  4.282684838459110E-002
 -0.223095393061516     
 -0.216741870969417     
 -0.251596933205438     
 -0.247088427719263     
  0.285348317604170     
  0.289173535997298     
  0.357876259488659     
  0.362014399256901     
  5.809612315064663E-002
  6.257685696166661E-002
  0.757679071206189     
  0.274368353808897     
  0.270700192509748     
  0.376957338501386     
  0.372885695979520     
 -0.348576691555041     
  0.757276674800572     
  0.722497068188616     
  0.725260058862349     
  7.321229675273576E-002
  7.756449476766718E-002
  0.259578329476970     
  0.255911754089619     
  0.391943660488904     
  0.387933918034974     
  0.706404300976054     
  0.709277751729872     
  0.241035920657662     
  0.244836455603979     
  0.403012990198688     
  0.406968814696511     
 -3.862414261827655E-002
 -4.517507736790518E-002
  9.272531500237960E-002
  8.826667131105131E-002
  0.693421110774351     
  0.690510339196748     
  0.230043988987467     
  0.226084336411262     
  0.418145275495227     
  0.422050636924631     
  0.107965046699713     
  0.103344049492497     
  0.677829092231013     
  0.674902109800202     
  0.215127512141859     
  0.211039645791773     
  0.123246864402653     
  0.118523732564381     
  0.437206074843324     
  0.433356172985555     
 -0.294508524361233     
  0.659516497988313     
  0.662464171325092     
  0.200060381689661     
  0.195862209221038     
  0.133870363422087     
  0.138573199021629     
 -0.144324530131681     
 -0.150536030573062     
  0.184819178638729     
  0.180508909322585     
  0.149389268309877     
  0.153970392434388     
  0.452402963801088     
  0.448622773371693     
  0.169421340867051     
  0.164985003521969     
  0.644231866557472     
  0.647211085914687     
  0.463782578796268     
  0.467472801527586     
  0.631963657706343     
  0.628943778749777     
 -0.353605006595010     
  0.478677475084189     
  0.482269087839643     
  0.616667863723448     
  0.613604799595988     
  0.496872840416189     
  0.493372558075655     
  0.598297616594711     
  0.601399409619781     
 -0.266031318492684     
 -0.262906002537261     
  0.511432481618606     
  0.508012147802681     
  0.583111812140227     
  0.586257190807896     
  0.522697833526973     
  0.526050870201277     
  0.571105474516849     
  0.567902626982205     
  0.537530280078700     
  0.540829378673341     
  0.555880394986251     
  0.552625413879647     
  0.755683724613331     
 -0.343081209345728     
 -0.354275493979783     
 -0.295554843027024     
 -3.059024094782371E-002
 -2.369622436233185E-002
 -9.893574052743162E-002
 -9.278052304034909E-002
 -0.326715463979661     
 -0.358775501282271     
 -0.339364155803809     
 -0.166220465549636     
 -0.172838372897904     
 -0.206501371743971     
 -0.199554438159575     
 -0.353878788747018     
 -1.472818260947600E-002
 -7.639323172597840E-003
  0.756904060856207     
  0.752938958266989     
 -0.308813282672466     
 -0.363842781927383     
 -8.335351496606559E-002
 -7.681244990415960E-002
 -0.356809419035486     
  1.535869292448639E-003
 -0.279216330462417     
 -0.129174167433177     
 -0.122644167633218     
  8.675981419214968E-003
 -0.358657358255875     
 -0.358521011885765     
 -0.280471632930586     
  0.739458730981847     
 -0.368476989447691     
 -6.849681943905883E-002
 -6.144916149510486E-002
 -0.238308271503871     
 -0.231636351780261     
  2.482218436818242E-002
  1.782509554167239E-002
 -0.309957172009503     
 -0.342580404235609     
  0.735255514839330     
 -0.356810709047410     
  0.326153470661150     
  0.321177008890015     
  0.312479995113863     
  0.307670495787451     
  4.007500397790605E-002
  0.771101245317903     
  3.387216854298060E-002
  0.340451349052152     
  0.335418709879886     
  0.293850327587240     
  0.298321651616272     
  0.350366365086242     
  0.355350358695089     
  0.774628050007897     
  5.449941907360904E-002
  4.949359264593843E-002
 -4.820121000792075E-002
 -5.551364131145706E-002
  0.279392356498772     
  0.283390185076034     
  0.365459951199240     
  0.370368598984452     
  0.773345858493225     
 -0.323892957096341     
  6.476353980962438E-002
  6.927217074060750E-002
 -0.363989316964715     
  0.268442523467564     
  0.264678413179126     
  0.385433072937435     
  0.380587906926146     
  0.717924314558445     
  0.722206141350729     
  0.253790126868979     
  0.249842814571973     
  8.459995327594089E-002
  7.987331452397989E-002
  0.400527527172405     
  0.395724263002126     
 -0.181094895873156     
 -0.188431059887041     
  0.701062073044801     
  0.705316643977042     
  0.234918302520504     
  0.239171636979004     
 -0.104258457089675     
 -0.111065721745967     
  9.496154077985747E-002
  0.100045564380204     
  0.774536310273332     
  0.410902621217321     
  0.415679525274370     
  0.689042676776436     
  0.684849040072200     
 -0.244501901441906     
 -0.250166732955576     
  0.224337444268793     
  0.219891349459290     
  0.110148057049903     
  0.115540997089929     
  0.426198369409113     
  0.430950338897215     
  0.209282666654894     
  0.204711251122216     
  0.669164213907511     
  0.673313895447081     
  0.131061299871470     
  0.125566065509863     
  0.193984778078985     
  0.189281277750698     
  0.141341356844644     
  0.146661571462279     
  0.173495473766170     
  0.178346642661140     
  0.446399081741490     
  0.441686185858573     
  0.157416695611270     
  0.162460733302742     
  0.653729923279188     
  0.657861073091574     
 -0.372469977353560     
 -0.221639358786548     
 -0.214142367391322     
  0.461980077657773     
  0.457338144635286     
  0.642467983115440     
  0.638333871669632     
  0.477012298451114     
  0.472492659386956     
  0.626960305359202     
  0.622810625362444     
 -0.370037873271810     
  0.491460250886456     
  0.487042568414001     
 -0.359707466531772     
  0.607089476644010     
  0.611250434437911     
 -4.331848596085824E-002
 -3.531385173168940E-002
  0.505812579297992     
  0.501477061657766     
  0.591660818580758     
  0.595802856053265     
  0.520182235438324     
  0.515908147555794     
  0.580785054420389     
  0.576615430445373     
  0.530483487430928     
  0.534717566777705     
  0.565213808370740     
  0.560982836255900     
  0.545345917057384     
  0.549567519341657     
 -0.294487143015606     
 -0.150945833838214     
 -0.158089973888282     
  0.767971252134037     
 -0.264872034806586     
 -0.260158795245124     
 -9.431958108711261E-002
 -8.710395626937024E-002
 -0.293468537446547     
 -2.660899231266952E-002
 -1.815661653704405E-002
 -0.359777040934580     
  0.755047647027870     
 -0.134482268904617     
 -0.141737350677075     
 -0.375975042700359     
 -0.324849857716362     
 -0.340345487040259     
 -0.370032129123081     
  0.773712062081871     
 -0.375691673471560     
 -9.474019091904934E-003
 -9.220501028737241E-004
 -7.919316322165187E-002
 -0.373166608511313     
 -7.157598777811972E-002
  0.749160310661435     
 -0.163284008825665     
 -0.170924406626825     
 -0.195148066474417     
 -0.203162584236314     
 -0.381795702315908     
 -0.308239712925379     
 -0.372442014358898     
 -0.280476410183961     
 -0.277461046135426     
 -0.375960019723900     
 -0.230813512094996     
 -0.238860955143568     
  7.644261981248079E-003
  1.635125357697665E-002
  0.787109715756718     
 -0.122613654072374     
 -0.115120842040906     
 -0.377746422299475     
  0.736382706953331     
 -0.387253915325185     
 -0.358442830131378     
  3.341588331881867E-002
  2.461994836899306E-002
  0.320238511437039     
  0.314571265720955     
  0.333020994054806     
  0.327092162789699     
 -6.208589138176685E-002
  0.308169233007088     
  0.302674916136347     
  4.698736263060887E-002
  0.792592151569494     
 -0.307086466998452     
 -0.340993567995875     
 -5.326568972474246E-002
  0.730481676258331     
  4.089825602198888E-002
  0.348422073090917     
  0.342564746409794     
  0.292857025239834     
  0.288264288652690     
  0.789969877543192     
  6.016006862372513E-002
  0.357854997217151     
  0.363590870089176     
  5.630197647502080E-002
  0.273540601127381     
  0.277105494980620     
  0.378767209210257     
  0.373119037399060     
  7.606675121249734E-002
  7.142432972656032E-002
  0.262352412089520     
  0.258725160113052     
 -0.380310267013861     
 -0.392016688419202     
  0.393936896198618     
  0.388327131232673     
  0.712070071433575     
  0.717853755600032     
  0.248289781453566     
  0.243838432402896     
  0.792798044145174     
  9.176393253261762E-002
  8.645540529230748E-002
  0.409109667339096     
  0.403499488291314     
  0.228870900202945     
  0.233659390720103     
  0.791926322790457     
  0.694779110353099     
  0.700357821235608     
  0.101550015532941     
  0.107522404285723     
 -0.105651949991064     
  0.218660478456339     
  0.213774165991797     
 -9.795332973565896E-002
  0.418753904481668     
  0.424383072999845     
  0.116836166507984     
  0.123254795720738     
  0.678788453610210     
  0.684227726765563     
  0.203438294728912     
  0.198458883758679     
 -0.146442845424440     
 -0.154379666672869     
  0.138948805586019     
  0.132596020939173     
  0.187863502178005     
  0.182673654763871     
  0.154822494540561     
  0.149155527567663     
  0.434266719919901     
  0.439904591485436     
  0.171420703585726     
  0.166107282795316     
 -0.323079411691895     
  0.663266715381181     
  0.668624581703382     
  0.772029427586643     
  0.455881077432693     
  0.450258886044524     
  0.647894981688859     
  0.653211034540964     
  0.472652178172000     
  0.467113940920036     
  0.637692270478383     
  0.632388280685076     
  0.486188822449318     
  0.480933045760269     
 -0.210939116099718     
 -0.219693643140490     
  0.621780705117836     
  0.616473578489227     
 -0.251389725635329     
 -0.258121297920860     
  0.495235831445481     
  0.500562207698332     
  0.599639876984563     
  0.604927033292795     
  0.514327206387737     
  0.509223738195454     
  0.585147917697924     
  0.590211921758834     
  0.528718598189170     
  0.523485198044142     
  0.570816015378327     
  0.576117436999809     
  0.537861842224971     
  0.542927373070671     
  0.552517398828143     
  0.557813578901536     
 -0.175833691565551     
 -0.184131654483699     
 -0.387145267600621     
 -4.020715338343558E-002
 -3.011852265346369E-002
  0.783709362069940     
 -0.294151540488051     
 -0.378452974530481     
  0.764198907230724     
 -8.788356010974291E-002
 -7.936883267011992E-002
 -0.378119662327286     
  0.791532732333194     
 -0.358773375140128     
 -0.321493804031346     
 -0.291369976384070     
 -2.162539682617319E-002
 -0.393852733006197     
 -1.143825330744645E-002
  0.752239044786951     
 -0.127463220228487     
 -0.135640040894107     
 -0.388953300479844     
 -0.385874881319145     
 -0.340215561683684     
 -0.396017880891920     
 -0.391152133102595     
  6.481551401342022E-003
 -3.357280949312503E-003
 -0.401005957749780     
  0.744463239437652     
  0.803365559385694     
 -0.394816222476617     
 -0.229760876524281     
 -0.239433013343531     
 -0.304746428109643     
 -0.159174149649051     
 -0.167584518945992     
 -0.189307781789076     
 -0.198394584318636     
 -0.397269658661884     
 -0.112482374045096     
 -0.103992879437623     
 -0.282585210638950     
 -0.277533100241974     
  1.442526767082967E-002
 -0.399306162752493     
  2.543870461580409E-002
  0.790132630536522     
 -0.407427726843441     
  0.731883045379902     
  0.811325583091292     
  4.662618607295215E-002
  3.278009799252946E-002
  0.806953085630284     
  0.321284459777469     
  0.314224893168794     
  0.341465195880380     
  0.334555629646730     
  0.303733095225184     
  0.297464133086003     
 -0.359209841730830     
  4.806865549702626E-002
  0.356535594354210     
  0.350038124968678     
  0.724303523284136     
  0.286324141571765     
  0.282679836383626     
 -0.378125795266926     
 -0.338172134225013     
  6.293493212671951E-002
  0.365501864536285     
  0.371979800154114     
  0.267537989923577     
  0.269171487215027     
  6.731760802769021E-002
  0.812013536507228     
  8.309860914713883E-002
  7.801461116097998E-002
  0.257222728490365     
  0.252960514338261     
 -0.301183528056629     
  0.387171578165020     
  0.380889508913983     
  0.809810847598860     
  0.243448007364663     
  0.237768336827721     
  9.273366547727988E-002
  9.906610821467370E-002
  0.402492414392276     
  0.396042425375057     
  0.704089845232415     
  0.711315508546020     
 -0.412943620100702     
  0.223090052012865     
  0.227949230976547     
  0.811540736632722     
  0.780202774139990     
 -5.229329996289089E-002
  0.108018935183282     
  0.115283539110131     
  0.411143341280468     
  0.417524821425085     
  0.687974241019002     
  0.694673779507983     
  0.213187803652693     
  0.207669319886462     
  0.130998290754624     
  0.123021150755684     
 -0.398814685646342     
 -0.246983895853646     
 -0.255721304031970     
  0.197532028570217     
  0.192674248581245     
 -4.071015358329063E-002
  0.146728979561798     
  0.139569633795778     
  0.176032197016451     
  0.182327963816802     
  0.426409821416681     
  0.433023860265586     
  0.162558593230059     
  0.157848304815593     
  0.672802344013827     
  0.679585336095571     
  0.442192273148279     
  0.448695225671019     
  0.657277491115127     
  0.663732901510370     
  0.465571794227615     
  0.458858596814114     
  0.642389481042095     
  0.649029204565996     
 -7.010644672336062E-002
  0.489207758581904     
  0.482708453220283     
  0.632807649032042     
  0.626407856440169     
  0.610458129121991     
  0.617115675986744     
  0.516323535482279     
  0.509940509850855     
  0.586941237848269     
  0.593438821930882     
 -5.958753792936661E-002
 -0.143322734118259     
 -0.152252773918638     
  0.537401697923472     
  0.543795199646853     
  0.562602246528803     
  0.569241301713915     
  0.799798424730481     
  0.769969491906993     
 -0.320767473791758     
  0.809854999633459     
 -0.417761416479818     
 -0.398568407545146     
 -0.403426585459549     
 -3.559665209072620E-002
 -2.199456398958226E-002
 -0.166979926710067     