 TITLE="euler solver on unstructured grid" 
 VARIABLES= "X" "Y"  "P" "Rou" "U"  "V"  "nuT"
 ZONE NODES=        5306  ELEMENTS=       10382  ZONETYPE=FETRIANGLE
 DATAPACKING=BLOCK
 VARLOCATION=([3-7]=CELLCENTERED)
 -0.272758683161266     
 -0.264121955904535     
 -0.255878696320489     
 -0.247701056719036     
 -0.239557929613232     
 -0.231437208305456     
 -0.223332671298319     
 -0.215240619323103     
 -0.204466311282838     
 -0.193707168876324     
 -0.182958629605648     
 -0.172219927026789     
 -0.161490673030027     
 -0.150767860491796     
 -0.140051689822399     
 -0.129342445506427     
 -0.118637624866050     
 -0.107937764608725     
 -9.724344347905756E-002
 -8.655236898493733E-002
 -7.586524598240178E-002
 -6.518277932748785E-002
 -5.450280263952031E-002
 -3.963304062511099E-002
 -2.476912177378967E-002
 -9.910583676966570E-003
  4.943951115707449E-003
  1.979277863214696E-002
  3.463727632270115E-002
  4.947765437309261E-002
  6.431416500618845E-002
  7.914706044485577E-002
  9.397650883767257E-002
  0.108803761523555     
  0.123626946381838     
  0.138447230677150     
  0.153264782558069     
  0.168079686098882     
  0.182892151485314     
  0.197702262791653     
  0.212511145245381     
  0.227316842651545     
  0.242120522274773     
  0.256922268189352     
  0.271722122432429     
  0.286520169078291     
  0.301316534238372     
  0.316112217028722     
  0.330905303291531     
  0.345696876217137     
  0.360486935805541     
  0.375275566131031     
  0.390062809230752     
  0.404848665104704     
  0.419634174906080     
  0.434417382439928     
  0.449199286822295     
  0.463979930090327     
  0.478759354281168     
  0.493537517357673     
  0.508314419319843     
  0.523091101320870     
  0.537865565128658     
  0.552638767822110     
  0.567410751438371     
  0.582181431903152     
  0.596950893290743     
  0.611719009489708     
  0.626486821653242     
  0.641252331549248     
  0.656016412182340     
  0.670779105589662     
  0.685540369734072     
  0.700300120541278     
  0.715058358011282     
  0.726357365394056     
  0.714818578138953     
  0.699889081342184     
  0.684961097882618     
  0.670034627760254     
  0.655109586900804     
  0.640185933267123     
  0.625263708896356     
  0.610341788561020     
  0.595422170493213     
  0.580503897614030     
  0.565586843812038     
  0.550671093161527     
  0.535756561588206     
  0.520843291129221     
  0.505930240631378     
  0.491019408326775     
  0.476109837136508     
  0.461201527060576     
  0.446294436061835     
  0.431388606177429     
  0.416484079444504     
  0.401579856747010     
  0.386677978354189     
  0.371777487187138     
  0.356878383245855     
  0.341980708567486     
  0.327084547226319     
  0.312189899222356     
  0.297295849513835     
  0.282404480407144     
  0.267514792786233     
  0.252626912762537     
  0.237740924410343     
  0.222856869766798     
  0.207974832906190     
  0.193093982861048     
  0.178216359900613     
  0.163341091020272     
  0.148468260294313     
  0.133598077908459     
  0.118730627936998     
  0.103866078528509     
  8.900359871552090E-002
  7.414531284156496E-002
  5.929047401345942E-002
  4.443925037978240E-002
  2.959189416340101E-002
  1.474865758718235E-002
 -9.024916315099546E-005
 -1.492544686934688E-002
 -2.975464303929664E-002
 -4.457845845474811E-002
 -5.939643070711165E-002
 -7.003159579902336E-002
 -8.066227269189151E-002
 -9.129029146923522E-002
 -0.101914358754994     
 -0.112533181173108     
 -0.123148462695663     
 -0.133758783835165     
 -0.144362683066975     
 -0.154961654177457     
 -0.165553983419106     
 -0.176137872970126     
 -0.186714312171146     
 -0.197280914680350     
 -0.207834915821617     
 -0.218375749561232     
 -0.226269554362901     
 -0.234150874132650     
 -0.242016009601758     
 -0.249858739272839     
 -0.257666956448271     
 -0.265409553641111     
  -9.84354772353775     
  -8.84443167498243     
  -7.84531562642711     
  -6.84619957787179     
  -5.84708352931647     
  -4.84796748076115     
  -3.84885143220582     
  -2.84973538365050     
  -1.85061933509518     
 -0.851503286539858     
  0.147612762015464     
   1.14672881057079     
   2.14584485912611     
   3.14496090768143     
   4.14407695623675     
   5.14319300479207     
   6.14230905334739     
   7.14142510190272     
   8.14054115045804     
   9.13965719901336     
   10.1387732475687     
   10.0967361030510     
   10.0546989585333     
   10.0126618140157     
   9.97062466949799     
   9.92858752498032     
   9.88655038046265     
   9.84451323594497     
   9.80247609142730     
   9.76043894690963     
   9.71840180239195     
   9.67636465787428     
   9.63432751335661     
   9.59229036883893     
   9.55025322432126     
   9.50821607980359     
   9.46617893528592     
   9.42414179076824     
   9.38210464625057     
   9.34006750173290     
   9.29803035721522     
   8.29891430865990     
   7.29979826010458     
   6.30068221154926     
   5.30156616299394     
   4.30245011443861     
   3.30333406588329     
   2.30421801732797     
   1.30510196877265     
  0.305985920217327     
 -0.693130128337995     
  -1.69224617689332     
  -2.69136222544864     
  -3.69047827400396     
  -4.68959432255928     
  -5.68871037111460     
  -6.68782641966993     
  -7.68694246822525     
  -8.68605851678057     
  -9.68517456533589     
  -10.6842906138912     
  -10.6422534693735     
  -10.6002163248559     
  -10.5581791803382     
  -10.5161420358205     
  -10.4741048913028     
  -10.4320677467852     
  -10.3900306022675     
  -10.3479934577498     
  -10.3059563132322     
  -10.2639191687145     
  -10.2218820241968     
  -10.1798448796791     
  -10.1378077351615     
  -10.0957705906438     
  -10.0537334461261     
  -10.0116963016084     
  -9.96965915709077     
  -9.92762201257310     
  -9.88558486805543     
 -0.219524626271111     
 -0.223376665503937     
 -0.210275101289109     
 -0.214290921412300     
 -0.231975287529475     
 -0.228248584445716     
 -0.215690388067407     
 -0.220379460433690     
 -0.204402841670873     
 -0.200198558979717     
 -0.240828513074707     
 -0.237245636222225     
 -0.224319296781499     
 -0.228945327184731     
 -0.206493553562214     
 -0.211353660851174     
 -0.246608799484368     
 -0.249919117081930     
 -0.194171036881966     
 -0.189789246693672     
 -0.233586109628802     
 -0.238255114712759     
 -0.276287317230446     
 -0.274446608311682     
 -0.258881183667969     
 -0.256113672562477     
 -0.213001517047830     
 -0.218517260676474     
 -0.196428851466251     
 -0.201465596747580     
 -0.220454530847441     
 -0.225750062161895     
 -0.282732919860546     
 -0.281749099848154     
 -0.183897083383462     
 -0.179354937337505     
 -0.265363970931409     
 -0.267443640425318     
 -0.284397784399068     
 -0.281057998559684     
 -0.248625657815774     
 -0.243984603600156     
 -0.289183230915988     
 -0.203301446481892     
 -0.209026232950266     
 -0.276088332652765     
 -0.272497088816770     
 -0.173746803736653     
 -0.169043848316384     
 -0.291924697485381     
 -0.186062999454390     
 -0.191248811647961     
 -0.228329364716359     
 -0.233889298856500     
 -0.290219109891323     
 -0.220846142816325     
 -0.226970997489356     
 -0.163567951420003     
 -0.158687768575473     
 -0.259270783478967     
 -0.254995086309885     
 -0.289887612108462     
 -0.211125196738230     
 -0.217566619860376     
 -0.293798823145456     
 -0.192673582851161     
 -0.198556132226531     
 -0.153074361613839     
 -0.148017329189158     
 -0.176038564838902     
 -0.181351019678808     
 -0.285435901775956     
 -0.269086741313995     
 -0.266075520874400     
 -0.239298085663008     
 -0.245215748714430     
 -0.299171332382704     
 -0.277431999401650     
 -0.142250255526355     
 -0.137042001906997     
 -0.300108347757314     
 -0.302105457066315     
 -0.277476321013080     
 -0.200001034463722     
 -0.206647310955436     
 -0.166462325095758     
 -0.171964156773008     
 -0.125940783255381     
 -0.131268333887682     
 -0.220686958811026     
 -0.227900829516516     
 -0.182053859053789     
 -0.188023822969899     
 -0.294547847341167     
 -0.231354263922714     
 -0.238134189151924     
 -0.120281414625297     
 -0.114865981144345     
 -0.252073419415152     
 -0.258205462922166     
 -0.162102889009189     
 -0.156343058663756     
 -0.300772551449722     
 -0.289563211121661     
 -0.304205941916415     
 -0.109387639184144     
 -0.103905060464767     
 -0.208798780265886     
 -0.216272867688004     
 -0.194882369136430     
 -0.188127606379553     
 -0.151201975703857     
 -0.145219163241177     
 -0.304758818952568     
 -0.173228896260306     
 -0.179204840571636     
 -9.853470432501400E-002
 -9.299817739434973E-002
 -0.286168888456010     
 -0.310749985686750     
 -0.265005694565610     
 -0.270835017496592     
 -0.309676855166953     
 -0.309640123022285     
 -0.301993665687837     
 -0.139843087759673     
 -0.133697675140326     
 -0.277424600970979     
 -8.789028342909930E-002
 -8.232714416442727E-002
 -0.313639990535808     
 -0.316154839266264     
 -0.171798992736790     
 -0.165420724213259     
 -7.751860135585857E-002
 -7.189789908443704E-002
 -0.203523947364953     
 -0.195884805315262     
 -0.313222128767255     
 -0.128341843097815     
 -0.122085471979136     
 -0.280526299992419     
 -0.246326315564379     
 -0.254110338597684     
 -0.219363040467713     
 -0.227746986590915     
 -0.176147107311907     
 -0.182867460759551     
 -0.292731928773103     
 -6.647859372584689E-002
 -6.076486113310962E-002
 -0.232490683033264     
 -0.240639765451645     
 -0.110725185939072     
 -0.117029299899672     
 -0.161006154897900     
 -0.154254641312696     
 -0.289676568566406     
 -4.790329385364752E-002
 -5.368342662141935E-002
 -0.315652768339335     
 -0.317194242068278     
 -0.106058794985070     
 -9.970460473625677E-002
 -0.322510593816623     
 -0.205607075764236     
 -0.214186115697317     
 -0.148941875853082     
 -0.141981411471153     
 -3.368618574337172E-002
 -3.951382074108694E-002
 -0.303481079056532     
 -0.189631969121783     
 -0.181937647924603     
 -0.323141787844997     
 -0.262683209343963     
 -0.271084639177443     
 -9.469824122700779E-002
 -8.830992642685181E-002
 -0.302841650696653     
 -1.894732045692036E-002
 -2.481611761106348E-002
 -0.326916609617190     
 -0.129957552570865     
 -0.137073130972341     
 -8.467371342025456E-002
 -7.839930444468030E-002
 -0.327873545809061     
 -0.276623316171278     
 -0.329928354394869     
 -0.166076062006733     
 -0.173633485275841     
 -0.286722171039024     
 -3.894392712025333E-003
 -9.809055605653382E-003
 -7.541620325959709E-002
 -6.891742762834974E-002
 -0.117384479461911     
 -0.124586581039892     
 -0.190741177940577     
 -0.199469373067115     
  1.132091183075639E-002
  5.339725332699658E-003
 -0.317234021993561     
 -0.240805234093130     
 -0.231392559983415     
 -0.217048343452179     
 -0.226604081405605     
 -6.287370504299086E-002
 -5.626596422235739E-002
 -0.245650096812186     
 -0.255057528651719     
 -0.317060701418127     
  2.046888692873966E-002
  2.656743191435933E-002
  0.324906051529023     
  0.319785160538100     
 -0.113561621618604     
 -0.106481836716925     
  0.339527307911749     
  0.334529573068929     
  0.310383666182214     
  0.305092389405130     
  4.175891811131582E-002
  3.547311423990563E-002
  0.726545518187753     
  0.725846346446824     
 -0.158356292016501     
 -0.150498703126770     
 -0.289399387410638     
 -4.931428795590174E-002
 -4.265945965074838E-002
  0.354274057376985     
  0.349375528148919     
  0.295855909263555     
  0.290348098494151     
 -0.330662459253251     
  5.685583377482072E-002
  5.036527279550434E-002
  0.364298541176339     
  0.369100280563149     
 -0.331317194377077     
  0.281244373236633     
  0.275513595517871     
  0.379264286551348     
  0.383960801587530     
  6.525223848982757E-002
  7.186427986537361E-002
  0.711918251987019     
  0.710901323810536     
  0.266545721036168     
  0.260640221059210     
  0.394258188129244     
  0.398838641049009     
  0.696781974602782     
  0.695488615704426     
  0.251785507646441     
  0.245773273495693     
  8.681928830374659E-002
  8.020824329691086E-002
  0.409280488063926     
  0.413735562162121     
  0.236978964894705     
  0.230900975088190     
  0.681640489312208     
  0.680098778837301     
  0.101763507169435     
  9.523042164865012E-002
  0.424335772610700     
  0.428658386386915     
  0.222126148406792     
  0.215988306623977     
  0.666586991640835     
  0.664817241059808     
  0.116736126056286     
  0.110293975426011     
  0.207214198034133     
  0.201011402524631     
  0.439416278480839     
  0.443599890271390     
  0.131768342216853     
  0.125388386049117     
  0.651603017002413     
  0.649620099843573     
  0.192225739129549     
  0.185959747239804     
  0.146870565718174     
  0.140515860274251     
  0.177152970377075     
  0.170837438219741     
  0.454478269026608     
  0.458516399442632     
  0.162017208339540     
  0.155674513076059     
  0.636643676734806     
  0.634459017231978     
  0.469457417892437     
  0.473346359063983     
  0.621675905571610     
  0.619300123190978     
 -0.103193894497047     
 -9.590029131614630E-002
 -0.337298131038959     
  0.488076171378922     
  0.484334367842558     
 -0.270321604776835     
 -0.260530821125734     
  0.606703394670499     
  0.604147630235741     
  0.499150847810734     
  0.502750718203954     
  0.589029612843235     
  0.591755139121907     
  0.513964641605375     
  0.517426739652119     
  0.573936456722384     
  0.576825391074508     
  0.528827254831551     
  0.532153891107034     
  0.558841597410345     
  0.561886187499639     
  0.546974238483615     
  0.543784798258118     
 -3.499517939970596E-002
 -2.830507398997753E-002
 -0.335800921929271     
 -0.332158202485838     
 -0.302012401964940     
 -0.138298975420543     
 -0.146184789203415     
 -0.183376385380307     
 -0.174589877771540     
 -0.201679457224870     
 -0.211437386912994     
 -0.332390076943540     
 -0.340358350526029     
 -8.790067939111208E-002
 -8.063886633734721E-002
 -1.996052290463790E-002
 -1.322364086022417E-002
 -0.343137936324652     
 -0.303024120720652     
  0.741318673465786     
  0.740978720772931     
 -0.343912442084618     
 -0.344504889178983     
 -0.126362114949673     
 -0.134570595864764     
  2.344145258206032E-003
 -0.275351182120512     
 -4.465194348353150E-003
 -0.346534970624836     
  0.739314835989836     
 -0.286186408419246     
 -0.168375751370036     
 -0.159664557064622     
 -0.346801501487101     
 -7.313238274621885E-002
 -6.567718419256002E-002
  1.806735640500572E-002
  1.112212824351688E-002
 -0.316955111435945     
 -0.116988819226436     
 -0.108786804752558     
  0.740375109947132     
 -0.240159990934425     
 -0.229622827611687     
 -5.931138748180764E-002
 -5.183715864677935E-002
 -0.317531773276063     
 -0.194611734853919     
 -0.184658575683115     
  2.647552510489019E-002
  0.312678441739145     
  0.319112950948663     
  0.327115890140995     
  0.333375259927172     
  3.372835557905693E-002
  0.304985127769742     
  0.298239571318980     
  0.347979919047826     
  0.341813231800214     
  4.143643535603125E-002
  4.919562782134791E-002
 -0.214467189550710     
 -0.225220721217902     
 -0.243998576022576     
 -0.254542728080323     
  0.290680050935874     
  0.283527563008298     
  0.362821072559473     
  0.356728080139724     
  6.444183019528782E-002
  5.624071344863330E-002
  0.756202131620816     
  0.268633003481821     
  0.276143315065595     
  0.371741300834927     
  0.377747041350804     
 -0.348845332828824     
  0.757094353283518     
  0.724384886457617     
  0.722873285175594     
  7.953394619443080E-002
  7.120603458177666E-002
  0.253767074881577     
  0.261463343006485     
  0.386806160673681     
  0.392702275740864     
  0.708533620590588     
  0.706620061435379     
  0.246692929145511     
  0.238951049781006     
  0.407683078216539     
  0.401915316838444     
 -4.561216579635415E-002
 -3.814101900738796E-002
  8.635698394427406E-002
  9.456630156208731E-002
  0.690563503396741     
  0.692824597587404     
  0.224081567964767     
  0.231844810158885     
  0.422712842366044     
  0.417086247701268     
  0.101601065776592     
  0.109624052366679     
  0.674808130343057     
  0.677373282893293     
  0.209087312684926     
  0.216902522334374     
  0.116898406160068     
  0.124784916835192     
  0.432338438077085     
  0.437814496339479     
 -0.288650284563590     
  0.662134468748591     
  0.659295348525536     
  0.193943734232050     
  0.201826094871238     
  0.140108953281941     
  0.132248191432278     
 -0.151997653272515     
 -0.142740228328273     
  0.178630660627826     
  0.186569108174381     
  0.155591919084598     
  0.147676865516335     
  0.447644799210095     
  0.452959830556757     
  0.163172229711736     
  0.171128149024313     
  0.646993609232895     
  0.643900966454191     
  0.467981958814251     
  0.462840983156460     
  0.628517207565393     
  0.631846757172635     
 -0.352786583868467     
  0.482735214093215     
  0.477767803654856     
  0.613093594989926     
  0.616642250644410     
  0.492490772613748     
  0.497299946043299     
  0.601456352315559     
  0.597711794926642     
 -0.258964374501860     
 -0.269828198552787     
  0.507157061391726     
  0.511821670637398     
  0.586387806620376     
  0.582461312242113     
  0.526400633431990     
  0.521870936057561     
  0.567195982910262     
  0.571302199598673     
  0.541135485895137     
  0.536735875704786     
  0.551870703970740     
  0.556135828518028     
  0.756801589583177     
 -0.348112863943289     
 -0.348881477519915     
 -0.301273505110265     
 -2.336749754081095E-002
 -3.086495349233213E-002
 -9.161711552717221E-002
 -0.100028081006149     
 -0.332454327673872     
 -0.356804346204408     
 -0.333130066000109     
 -0.174503306593727     
 -0.164415594796567     
 -0.197429579029303     
 -0.208474565896371     
 -0.355895941594193     
 -7.372781924302835E-003
 -1.492758303057280E-002
  0.754106037306038     
  0.755387510206752     
 -0.302413070996453     
 -0.360656987822601     
 -7.584426450324233E-002
 -8.426675798424896E-002
 -0.359810764132188     
  8.966601964747817E-003
 -0.285537614227878     
 -0.121090811273857     
 -0.130627791588307     
  1.326968626913598E-003
 -0.362898967125726     
 -0.359616030509175     
 -0.274001040002981     
  0.736205509126017     
 -0.364007008595769     
 -6.076607424403558E-002
 -6.913711062724405E-002
 -0.229068015293360     
 -0.240744315297482     
  1.746990150021039E-002
  2.528248249868872E-002
 -0.316327483941417     
 -0.348947268641022     
  0.738089618878079     
 -0.350048213219894     
  0.319770872765293     
  0.327221872052002     
  0.306030414858095     
  0.313773626505189     
  3.276774758915203E-002
  0.773073808618785     
  4.131627944679279E-002
  0.334076104113629     
  0.341458049040193     
  0.300085627392044     
  0.291728300961385     
  0.356366846313593     
  0.349008275786463     
  0.772400087435711     
  4.718413881577161E-002
  5.690546018019209E-002
 -5.592545997296109E-002
 -4.774848988510541E-002
  0.285760301536496     
  0.276674003614868     
  0.371392302519390     
  0.364082071368346     
  0.773918239074471     
 -0.316914506870834     
  7.214582633074042E-002
  6.189127351922894E-002
 -0.364036085219363     
  0.261649547265897     
  0.271171770683167     
  0.379217534107315     
  0.386433400373248     
  0.721048124325123     
  0.718615681159833     
  0.246929495471155     
  0.256456300769298     
  7.718102279233671E-002
  8.723374193566749E-002
  0.394390042052731     
  0.401475823280636     
 -0.190363504979581     
 -0.179013811841712     
  0.704389269647167     
  0.701492399679423     
  0.241649648319182     
  0.232226967904552     
 -0.112422838072995     
 -0.102823580113340     
  0.102308295288987     
  9.261416671581860E-002
  0.773712916577692     
  0.416558475567075     
  0.409623553461379     
  0.685046478284970     
  0.688329927045812     
 -0.252969014132360     
 -0.241575529749350     
  0.217303710480279     
  0.226740808293412     
  0.117488564502376     
  0.108116242404891     
  0.431754957087636     
  0.424981265257634     
  0.202158457486996     
  0.211680867410746     
  0.672786781274920     
  0.669166145430579     
  0.123652964247708     
  0.132904868134924     
  0.186769997651381     
  0.196372826362643     
  0.148674064543274     
  0.139274237701867     
  0.180704205409899     
  0.171046785350269     
  0.440528743989733     
  0.447133068720336     
  0.164712547569904     
  0.155102893428059     
  0.657494926485378     
  0.653566571515977     
 -0.366634024644755     
 -0.211794643166501     
 -0.223840248942281     
  0.456234691119850     
  0.462649891788999     
  0.638027779148381     
  0.642244080520501     
  0.471436944434790     
  0.477624830501853     
  0.622378193705780     
  0.626865000064197     
 -0.368993512459896     
  0.486024315154528     
  0.492025792283679     
 -0.365287284889984     
  0.611273465504504     
  0.606543016878357     
 -3.518383634266827E-002
 -4.339945424219753E-002
  0.500491668974793     
  0.506335413928479     
  0.595930904228801     
  0.591015050816879     
  0.514956532540243     
  0.520661375707739     
  0.575885834817460     
  0.581004229199247     
  0.535148776645724     
  0.529569837481913     
  0.560178056435316     
  0.565517055432998     
  0.549941855860578     
  0.544479463924596     
 -0.287473911700559     
 -0.159869440795603     
 -0.149038151353860     
  0.771360861533087     
 -0.256579974753528     
 -0.268347494389240     
 -8.588786505683715E-002
 -9.547985551301723E-002
 -0.300415206854028     
 -1.824880259564837E-002
 -2.643994491994724E-002
 -0.366783068009254     
  0.750882440744144     
 -0.143498411062343     
 -0.132610015556155     
 -0.373754945621300     
 -0.331904550944557     
 -0.332753000328097     
 -0.372039578739272     
  0.770058462054704     
 -0.368402733760213     
 -9.840906256938084E-004
 -9.312222812809849E-003
 -7.069966814805673E-002
 -0.376529181255154     
 -8.002890461820956E-002
  0.752982207391072     
 -0.172895122139368     
 -0.161173621718427     
 -0.205316399369919     
 -0.192839730623650     
 -0.378325065783294     
 -0.300633928215030     
 -0.373296022854287     
 -0.272804863543749     
 -0.285047290104582     
 -0.380653798182684     
 -0.241222430142141     
 -0.228320772898932     
  1.618990740379220E-002
  7.923001710325893E-003
  0.790001962174491     
 -0.113327718368651     
 -0.124320217723495     
 -0.383875699251272     
  0.731814319036532     
 -0.382434773756183     
 -0.350226503796525     
  2.505207676112488E-002
  3.316526026386828E-002
  0.313022616396167     
  0.321431674946993     
  0.325645715989423     
  0.334123991939439     
 -5.304742444698192E-002
  0.300692313692537     
  0.309766109669886     
  3.883849404667772E-002
  0.789540726769661     
 -0.314715425739872     
 -0.348770886764430     
 -6.228226474403161E-002
  0.734647249848798     
  4.937774923545209E-002
  0.341039829960465     
  0.349607755550168     
  0.285159567374835     
  0.295527155719583     
  0.791389064006654     
  5.178299170255005E-002
  0.364853531792831     
  0.356241658851090     
  6.473422030305169E-002
  0.280949457935299     
  0.269303636689549     
  0.371483546612460     
  0.380032983071571     
  6.760937599779125E-002
  7.982792951281092E-002
  0.254549738492861     
  0.266268585879491     
 -0.380243564551702     
 -0.385749367521880     
  0.386729877209814     
  0.395144509127817     
  0.716468295033443     
  0.713009610021723     
  0.240392352109036     
  0.251512118378433     
  0.791244172025840     
  8.326894729395423E-002
  9.484602831212614E-002
  0.401977864854399     
  0.410225311777058     
  0.236675952504238     
  0.225659680182095     
  0.791863373322794     
  0.699294233783200     
  0.695366850533717     
  0.109941362296035     
  9.902724131048550E-002
 -9.639218222825749E-002
  0.210557143510959     
  0.221714435886731     
 -0.107150467480557     
  0.425392776792485     
  0.417325521559490     
  0.125242948433946     
  0.114776005004808     
  0.683421195642006     
  0.679100692391865     
  0.195228678449429     
  0.206543338739563     
 -0.156434400610034     
 -0.144262457417037     
  0.130485912763359     
  0.141030425622261     
  0.179539631724820     
  0.190912610177147     
  0.146369436880893     
  0.157622073425916     
  0.440816063908930     
  0.432926488690406     
  0.162980729249148     
  0.174508102110631     
 -0.314771497706393     
  0.668031425724105     
  0.663354485584575     
  0.766916387043838     
  0.448996187688427     
  0.456706414613452     
  0.652804330566271     
  0.647790048686445     
  0.465917473647526     
  0.473402867125338     
  0.632114262457852     
  0.637452131313446     
  0.479801177020641     
  0.486868606214183     
 -0.221998774299205     
 -0.208476282307003     
  0.616043344798642     
  0.621696928628954     
 -0.260983899073063     
 -0.248434382661965     
  0.501209402269225     
  0.494127725635674     
  0.604994881175455     
  0.599060483172438     
  0.508167959531352     
  0.514914060577076     
  0.590400356594486     
  0.584450496945318     
  0.522459142587410     
  0.529266984824306     
  0.576410163508389     
  0.570021333004030     
  0.543404756402453     
  0.536898226168883     
  0.558226439768348     
  0.551610880688387     
 -0.186328733104131     
 -0.173485040699514     
 -0.385919670460837     
 -3.085140714462062E-002
 -3.941712599291174E-002
  0.788073510428313     
 -0.286095855879067     
 -0.386105694687643     
  0.769039038743622     
 -7.816045803058459E-002
 -8.906355842534040E-002
 -0.369286895558600     
  0.786979011501513     
 -0.367289624829887     
 -0.329923901972416     
 -0.299405517641637     
 -1.205242767583328E-002
 -0.391443192784577     
 -2.087387923048102E-002
  0.746645228852751     
 -0.137736785473610     
 -0.125263886350317     
 -0.390146154178059     
 -0.388406843167955     
 -0.331173947151818     
 -0.388212645136860     
 -0.394849542738109     
 -3.043288864024554E-003
  6.289564673457921E-003
 -0.397301594215185     
  0.749716897132714     
  0.807227346869517     
 -0.399961932670670     
 -0.241654448223003     
 -0.227386683174872     
 -0.295884206775122     
 -0.169826007826070     
 -0.156791852150563     
 -0.200827802150030     
 -0.186708391862774     
 -0.403956200359427     
 -0.101907813541401     
 -0.114502869682928     
 -0.273476945517713     
 -0.286613051500662     
  2.410280576339980E-002
 -0.389871572094842     
  1.587971512282343E-002
  0.784066610903520     
 -0.402276359386125     
  0.725930124445151     
  0.807385426100176     
  3.726803346827258E-002
  4.242298447969852E-002
  0.809303308437362     
  0.312918475713216     
  0.322223930612816     
  0.332970978865229     
  0.342720858065419     
  0.295230426642726     
  0.305510846185803     
 -0.349444087042011     
  5.744545758978345E-002
  0.348212868051744     
  0.358022358934607     
  0.729864315272600     
  0.277267899146505     
  0.291066975130180     
 -0.387382482937889     
 -0.347445520323487     
  7.245119701002353E-002
  0.373581897741537     
  0.363535284737346     
  0.275896803552324     
  0.260463500967957     
  5.774380102349451E-002
  0.809647985269969     
  7.362825529920096E-002
  8.733153117210038E-002
  0.248504550342913     
  0.261634310391652     
 -0.310101087150325     
  0.379004349116163     
  0.388663892179126     
  0.810608628643691     
  0.234425685274770     
  0.246406409950060     
  0.102235616577842     
  8.939770840459263E-002
  0.394216169711407     
  0.403901928545803     
  0.709784865997532     
  0.705187986055706     
 -0.406254987317427     
  0.232052534620896     
  0.218988073660752     
  0.810760670964969     
  0.786061470200236     
 -4.198496569660151E-002
  0.117357539234894     
  0.105839378256387     
  0.418743717479242     
  0.409496566384355     
  0.693528329873030     
  0.688657478819282     
  0.203930815009476     
  0.216607026210899     
  0.121389695968778     
  0.132594862768676     
 -0.398600633179084     
 -0.258043871463016     
 -0.244560583511275     
  0.188331079612693     
  0.201972115653943     
 -5.104721120668869E-002
  0.137317208492648     
  0.149033349852393     
  0.185353676854344     
  0.172782505272544     
  0.434125918263389     
  0.424868052672372     
  0.152930440425974     
  0.167694520652340     
  0.678658234850844     
  0.673254983054411     
  0.449655682961255     
  0.440788499313790     
  0.663076425223710     
  0.657443686599885     
  0.457519793108725     
  0.466459386946251     
  0.648538525808380     
  0.642386041913587     
 -5.936243781118178E-002
  0.481464494019197     
  0.489993069941357     
  0.626174085271816     
  0.632539765779856     
  0.617003634831733     
  0.610069683832563     
  0.508779780611936     
  0.517013219280074     
  0.593589673102046     
  0.586289897210602     
 -7.038384572150608E-002
 -0.154740861692029     
 -0.140705909953355     
  0.544355101645015     
  0.536357430325127     
  0.569626116395846     
  0.561723496753498     
  0.805141571295643     
  0.763337431846918     
 -0.311017386291520     
  0.804372165824302     
 -0.409455954769879     
 -0.406873943644936     
 -0.402040901069577     
 -2.491313053585031E-002
 -3.258855443069718E-002
 -0.178677468796321     