 TITLE="euler solver on unstructured grid" 
 VARIABLES= "X" "Y"  "P" "Rou" "U"  "V"  "nuT"
 ZONE NODES=        5306  ELEMENTS=       10382  ZONETYPE=FETRIANGLE
 DATAPACKING=BLOCK
 VARLOCATION=([3-7]=CELLCENTERED)
 -0.272999566778085     
 -0.264972235680138     
 -0.256961616199986     
 -0.248953783774895     
 -0.240947417187220     
 -0.232942002233336     
 -0.224937274669714     
 -0.216933077378580     
 -0.206261136243467     
 -0.195590796796418     
 -0.184919950129437     
 -0.174249521252900     
 -0.163580451246049     
 -0.152910697261769     
 -0.142241225375311     
 -0.131573005232784     
 -0.120904015412224     
 -0.110235236272316     
 -9.956764995717296E-002
 -8.889924397197826E-002
 -7.823100581713320E-002
 -6.756392299303918E-002
 -5.689598836116688E-002
 -4.203791221702422E-002
 -2.718008424754756E-002
 -1.232248481301506E-002
  2.535902153842602E-003
  1.739308915421800E-002
  3.225009225538048E-002
  4.710692038447632E-002
  6.196358425408102E-002
  7.682009457677008E-002
  9.167645849426047E-002
  0.106533686717534     
  0.121389784606066     
  0.136245759299979     
  0.151101617940992     
  0.165957364099961     
  0.180813006704034     
  0.195668549324069     
  0.210524997314759     
  0.225380352464723     
  0.240235621914082     
  0.255090809233695     
  0.269945916208993     
  0.284800946410832     
  0.299655905195502     
  0.314511792561407     
  0.329366612082595     
  0.344221367328330     
  0.359076058298612     
  0.373930688564299     
  0.388785259910821     
  0.403639772338177     
  0.418495227630204     
  0.433349627575518     
  0.448203972172525     
  0.463058263206654     
  0.477912502463335     
  0.492766688157139     
  0.507620820288065     
  0.522475900639949     
  0.537329929215978     
  0.552183904229130     
  0.567037827464834     
  0.581891695352231     
  0.596745511462179     
  0.611599270438391     
  0.626453974064703     
  0.641307622344302     
  0.656161209919306     
  0.671014738575145     
  0.685868206526390     
  0.700721610202181     
  0.715574949602520     
  0.726998839341839     
  0.715564765514069     
  0.700704152274960     
  0.685843603311304     
  0.670983118623101     
  0.656122694639493     
  0.641262329575049     
  0.626402025215201     
  0.611540776205253     
  0.596680582542018     
  0.581820446012519     
  0.566960361260468     
  0.552100331856725     
  0.537240354230429     
  0.522380430167011     
  0.507519557882635     
  0.492659737374114     
  0.477799970428470     
  0.462940257045704     
  0.448080595440386     
  0.433220987397945     
  0.418361434703812     
  0.403500937359579     
  0.388641497147488     
  0.373782115854562     
  0.358922793480802     
  0.344063531811637     
  0.329204334417924     
  0.314345201299664     
  0.299485136029310     
  0.284626142174532     
  0.269767219736924     
  0.254908374072774     
  0.240049608752941     
  0.225190925562853     
  0.210332328073368     
  0.195472823427799     
  0.180614413408387     
  0.165756103373012     
  0.150897896892534     
  0.136039802894099     
  0.121181824948565     
  0.106323970197650     
  9.146524578466335E-002
  7.660765706270642E-002
  6.175021474594806E-002
  4.689292597610532E-002
  3.203580146575374E-002
  1.717885192746879E-002
  2.322086288396760E-003
 -1.253547938100520E-002
 -2.739183258592013E-002
 -4.224795725589083E-002
 -5.710383375119561E-002
 -6.776986511548577E-002
 -7.843474829074192E-002
 -8.910047613205935E-002
 -9.976603614302712E-002
 -0.110430415827234     
 -0.121095602683489     
 -0.131760578859091     
 -0.142424324715914     
 -0.153088818825619     
 -0.163753030837501     
 -0.174415926830001     
 -0.185079463949626     
 -0.195742583278807     
 -0.206404209831109     
 -0.217066234692158     
 -0.225062011898943     
 -0.233057258833239     
 -0.241051818377274     
 -0.249045426287518     
 -0.257037568360346     
 -0.265026923378112     
  -10.2551293354621     
  -9.25513092934213     
  -8.25513252322220     
  -7.25513411710228     
  -6.25513571098236     
  -5.25513730486244     
  -4.25513889874251     
  -3.25514049262259     
  -2.25514208650266     
  -1.25514368038274     
 -0.255145274262817     
  0.744853131857107     
   1.74485153797703     
   2.74484994409695     
   3.74484835021688     
   4.74484675633680     
   5.74484516245673     
   6.74484356857665     
   7.74484197469657     
   8.74484038081649     
   9.74483878693642     
   9.74305335768489     
   9.74126792843336     
   9.73948249918184     
   9.73769706993031     
   9.73591164067878     
   9.73412621142726     
   9.73234078217573     
   9.73055535292420     
   9.72876992367268     
   9.72698449442115     
   9.72519906516962     
   9.72341363591810     
   9.72162820666657     
   9.71984277741504     
   9.71805734816352     
   9.71627191891199     
   9.71448648966046     
   9.71270106040894     
   9.71091563115741     
   9.70913020190588     
   8.70913179578596     
   7.70913338966604     
   6.70913498354611     
   5.70913657742619     
   4.70913817130627     
   3.70913976518634     
   2.70914135906642     
   1.70914295294649     
  0.709144546826571     
 -0.290853859293353     
  -1.29085226541328     
  -2.29085067153320     
  -3.29084907765312     
  -4.29084748377305     
  -5.29084588989297     
  -6.29084429601289     
  -7.29084270213282     
  -8.29084110825274     
  -9.29083951437266     
  -10.2908379204926     
  -10.2890524912411     
  -10.2872670619895     
  -10.2854816327380     
  -10.2836962034865     
  -10.2819107742350     
  -10.2801253449834     
  -10.2783399157319     
  -10.2765544864804     
  -10.2747690572288     
  -10.2729836279773     
  -10.2711981987258     
  -10.2694127694743     
  -10.2676273402227     
  -10.2658419109712     
  -10.2640564817197     
  -10.2622710524682     
  -10.2604856232166     
  -10.2587001939651     
  -10.2569147647136     
 -0.221490041464929     
 -0.221801974362824     
 -0.212331176398150     
 -0.212608890284184     
 -0.230498747385464     
 -0.230132194384842     
 -0.218002148402357     
 -0.218451134031016     
 -0.202606964418422     
 -0.202350643219310     
 -0.239463152571209     
 -0.239035966091419     
 -0.226560307784171     
 -0.227104095796250     
 -0.208910061006056     
 -0.209303877815800     
 -0.248271379168559     
 -0.248700874000136     
 -0.192269655933492     
 -0.192028585525561     
 -0.235778988767661     
 -0.236481067870583     
 -0.276107829036284     
 -0.275145052267091     
 -0.257855764989160     
 -0.257599853541466     
 -0.215661322980605     
 -0.216234951702671     
 -0.198947075339149     
 -0.199296302990794     
 -0.222980149615003     
 -0.223616146825399     
 -0.282823789471298     
 -0.282235522649805     
 -0.181901543113093     
 -0.181670227810656     
 -0.266618755702732     
 -0.266651546122417     
 -0.284100168634169     
 -0.281956437234723     
 -0.246962732592488     
 -0.246090915589583     
 -0.289499157689404     
 -0.206095413155795     
 -0.206592218568198     
 -0.275540352182466     
 -0.273513200855120     
 -0.171660102075313     
 -0.171432298454915     
 -0.291904937379577     
 -0.188664112730815     
 -0.188978592185171     
 -0.230890663993486     
 -0.231734957620127     
 -0.290893414220840     
 -0.223693696980148     
 -0.224514201874955     
 -0.161384507303056     
 -0.161154825986348     
 -0.257794941214584     
 -0.256943621225588     
 -0.291024405467726     
 -0.214179183472606     
 -0.214884724633327     
 -0.293361895516725     
 -0.195571794296521     
 -0.195999365549810     
 -0.150795061432053     
 -0.150561507584166     
 -0.178705710020701     
 -0.178997415964041     
 -0.284745705742010     
 -0.267865333849223     
 -0.267789626513530     
 -0.241867802738326     
 -0.243077183689530     
 -0.299519886705712     
 -0.278810141881887     
 -0.139886785260266     
 -0.139651021924819     
 -0.300968068329104     
 -0.301967842594903     
 -0.276532640677897     
 -0.203207029237283     
 -0.203793819390873     
 -0.169218983506198     
 -0.169504369337753     
 -0.128599981387574     
 -0.128835066204468     
 -0.223977843740527     
 -0.224996375822361     
 -0.185013378584781     
 -0.185387591793729     
 -0.293677626081150     
 -0.234337383578452     
 -0.235560692845993     
 -0.117792135981255     
 -0.117561553590522     
 -0.254542923540458     
 -0.256204953116300     
 -0.159507220988449     
 -0.159217867479796     
 -0.302122085987778     
 -0.291222727564853     
 -0.303602658678885     
 -0.106850546010494     
 -0.106628985567852     
 -0.212311467712431     
 -0.213125025611101     
 -0.191916842788018     
 -0.191425606054777     
 -0.148485850100377     
 -0.148194877967571     
 -0.303647111472112     
 -0.176201181524390     
 -0.176540793432783     
 -9.595378099594057E-002
 -9.574659083066883E-002
 -0.285127497311984     
 -0.311346626842717     
 -0.267254777548258     
 -0.269112985843359     
 -0.309828315794118     
 -0.310691914116763     
 -0.303883008918698     
 -0.137033754378238     
 -0.136746217868184     
 -0.279390015249585     
 -8.527739785481654E-002
 -8.508870744047978E-002
 -0.313376168813192     
 -0.315358464586589     
 -0.168933636872086     
 -0.168580575925637     
 -7.485495792560283E-002
 -7.469197501817090E-002
 -0.200203400790155     
 -0.199548778301308     
 -0.314720171871074     
 -0.125461758112516     
 -0.125184063862137     
 -0.279160942802059     
 -0.249424161314273     
 -0.251452050395747     
 -0.223176341899577     
 -0.224311599624609     
 -0.179454155273346     
 -0.179872879355496     
 -0.291398103621388     
 -6.373891321470294E-002
 -6.361583546105445E-002
 -0.236011401275790     
 -0.237521911427502     
 -0.113846624841550     
 -0.114106046515520     
 -0.157947115236342     
 -0.157588639020019     
 -0.291911912641703     
 -5.080184415498053E-002
 -5.087478885048158E-002
 -0.317750199796154     
 -0.315816373884590     
 -0.103086986484952     
 -0.102854835131001     
 -0.322724720419728     
 -0.209638173302676     
 -0.210510822524975     
 -0.145763740324244     
 -0.145412955257201     
 -3.662272675172003E-002
 -3.664454423046131E-002
 -0.301796645239418     
 -0.186216199288800     
 -0.185674236546295     
 -0.324095373231861     
 -0.265522628208259     
 -0.268746308002470     
 -9.167858065372177E-002
 -9.148768726221038E-002
 -0.305334399397868     
 -2.191336585167918E-002
 -2.189499032440636E-002
 -0.326506931244860     
 -0.133462165605805     
 -0.133800483267997     
 -8.168359506776685E-002
 -8.153028822394903E-002
 -0.329517074393491     
 -0.279176247924598     
 -0.328919211039750     
 -0.169775009222265     
 -0.170229190128118     
 -0.284797464326307     
 -6.879649327042517E-003
 -6.846847507329224E-003
 -7.227178565275992E-002
 -7.218612896211406E-002
 -0.120934099002791     
 -0.121246215559530     
 -0.194921406110247     
 -0.195622187821360     
  8.328154322564535E-003
  8.330935910498334E-003
 -0.315221788781723     
 -0.237074958563672     
 -0.235511737877822     
 -0.221436001032090     
 -0.222584161683724     
 -5.961229937439241E-002
 -5.963079383253975E-002
 -0.249456054263046     
 -0.251665982055923     
 -0.319806326407398     
  2.347829733698736E-002
  2.357817173172778E-002
  0.322779920646468     
  0.322488881935243     
 -0.110252803549468     
 -0.109980354385575     
  0.337454793434396     
  0.337203170501627     
  0.308200694468610     
  0.307830027235318     
  3.878209106300822E-002
  3.849433714310839E-002
  0.726595174231755     
  0.727017352667264     
 -0.154778026488589     
 -0.154344802978949     
 -0.292247352471073     
 -4.596153843333464E-002
 -4.609514295149750E-002
  0.352256511028839     
  0.352018773011442     
  0.293611281487580     
  0.293123595853448     
 -0.332973305327109     
  5.389753665002171E-002
  5.339750819564748E-002
  0.366908508060704     
  0.367141656374654     
 -0.329667931604304     
  0.278935863985706     
  0.278326481934806     
  0.381837786060050     
  0.382064933114902     
  6.829605390242308E-002
  6.892792757563952E-002
  0.711817778431283     
  0.712217172542526     
  0.264173821447309     
  0.263486924844752     
  0.396792582035784     
  0.397008383950032     
  0.696564591303563     
  0.696905994360355     
  0.249351710444062     
  0.248650992193539     
  8.390663859627102E-002
  8.326120984273333E-002
  0.411773480810803     
  0.411973137088073     
  0.234484828630519     
  0.233808608116361     
  0.681321428909446     
  0.681598373001380     
  9.887569874747017E-002
  9.828777922283667E-002
  0.426784794697714     
  0.426966185197607     
  0.219573082612930     
  0.218925153564274     
  0.666173450877764     
  0.666389767133177     
  0.113874404752825     
  0.113350865474736     
  0.204603669376465     
  0.203976250358406     
  0.441817863168370     
  0.441981188830691     
  0.128934819424243     
  0.128440637726126     
  0.651098232038063     
  0.651261063605619     
  0.189559859666703     
  0.188950535653855     
  0.144069162933432     
  0.143559679368370     
  0.174435481004939     
  0.173850768901112     
  0.456828121288272     
  0.456975309311727     
  0.159254133012274     
  0.158705612187530     
  0.636049530669134     
  0.636165682684134     
  0.471752414702401     
  0.471885797268458     
  0.620994534325250     
  0.621069724422755     
 -9.974454241392931E-002
 -9.951989107899674E-002
 -0.337805384951694     
  0.486695892348389     
  0.486574600244834     
 -0.267285981522280     
 -0.264015740501689     
  0.605937900327162     
  0.605976623453389     
  0.501338583039147     
  0.501448388754125     
  0.590914958483843     
  0.590908246483577     
  0.516102451744530     
  0.516199798715074     
  0.575876947932274     
  0.575898051186953     
  0.530917229668819     
  0.531000300904616     
  0.560835226301139     
  0.560880176807926     
  0.545893335977164     
  0.545827678338078     
 -3.156081768905725E-002
 -3.180323518608654E-002
 -0.335763756009026     
 -0.329835795188182     
 -0.299671675288693     
 -0.142161516338296     
 -0.142568648080337     
 -0.179433523767891     
 -0.178840480905604     
 -0.206287458958331     
 -0.207175993752181     
 -0.335393382202038     
 -0.341519136983767     
 -8.439908356575095E-002
 -8.428350831237416E-002
 -1.645768780364672E-002
 -1.677242548415125E-002
 -0.342573019985469     
 -0.306160004192567     
  0.741588855715372     
  0.741905733920083     
 -0.345748542272023     
 -0.343250238530901     
 -0.130380941997920     
 -0.130776402843390     
 -1.235474489068475E-003
 -0.278526133861098     
 -9.145259098679175E-004
 -0.344619309027825     
  0.740908143044372     
 -0.283505937701833     
 -0.164424722547171     
 -0.163898747912627     
 -0.349334946243569     
 -6.943328202033931E-002
 -6.949334532290535E-002
  1.447680047212471E-002
  1.469966840187793E-002
 -0.314261859293515     
 -0.113143125161084     
 -0.112824831294918     
  0.739958267436733     
 -0.235811626430660     
 -0.234347631664675     
 -5.549860137695124E-002
 -5.574563457447970E-002
 -0.320959610237446     
 -0.190166317535898     
 -0.189426435450632     
  3.006319585449009E-002
  0.315955889089051     
  0.316413127704862     
  0.330368530496793     
  0.330719509944070     
  3.014372580266229E-002
  0.302225641416122     
  0.301558125271769     
  0.345364950903402     
  0.345046826341287     
  4.503229463888624E-002
  4.562852954167821E-002
 -0.219475594234795     
 -0.220571690314974     
 -0.248443667506325     
 -0.250490827878389     
  0.287849838744005     
  0.286894431751952     
  0.360254560632990     
  0.359937555203162     
  6.089730169739369E-002
  5.985531962388512E-002
  0.757509451261998     
  0.272041047771320     
  0.273241084649852     
  0.374920462266980     
  0.375237017591751     
 -0.348911754983230     
  0.757670871951994     
  0.723771478387284     
  0.724673745294154     
  7.601244767357625E-002
  7.484260794005526E-002
  0.257208701382365     
  0.258490655971907     
  0.389950376544541     
  0.390254136497166     
  0.707773868851492     
  0.708563402966302     
  0.243651450126252     
  0.242425299372658     
  0.405299823413615     
  0.405021528056102     
 -4.169300147110780E-002
 -4.213857268545640E-002
  9.000860967179672E-002
  9.106664409609040E-002
  0.692609740107437     
  0.691950544618603     
  0.227590025135630     
  0.228735594589212     
  0.420396904372025     
  0.420151608024850     
  0.105259768354227     
  0.106144900649317     
  0.676936795584496     
  0.676400921309886     
  0.212630330564443     
  0.213726111527207     
  0.120557907274616     
  0.121325878464004     
  0.435358680161918     
  0.435569717736196     
 -0.292140271607475     
  0.661069646799938     
  0.661497841341146     
  0.197520467834756     
  0.198583192255068     
  0.136672263351125     
  0.135904045194179     
 -0.147757998798851     
 -0.147233529430274     
  0.182238418040279     
  0.183262253642720     
  0.152185215703843     
  0.151324584927525     
  0.450612771280759     
  0.450793030531654     
  0.166804549157710     
  0.167764778579257     
  0.645838097499977     
  0.646173652602971     
  0.465902331252563     
  0.465747083773945     
  0.630857288296943     
  0.630601984645908     
 -0.353469578084198     
  0.480744830093464     
  0.480609498470133     
  0.615496236707103     
  0.615312001904565     
  0.495274327812114     
  0.495392309736584     
  0.600048089173819     
  0.600168847863411     
 -0.263118618950756     
 -0.266086456348626     
  0.509889541925867     
  0.509989701553070     
  0.584903876803716     
  0.584969987544514     
  0.524638072886967     
  0.524558677069183     
  0.569759293158528     
  0.569739022477254     
  0.539437274301198     
  0.539384086998971     
  0.554481034005838     
  0.554500548497245     
  0.756643420409876     
 -0.345488094095206     
 -0.352146885625571     
 -0.298231333747415     
 -2.746240363651413E-002
 -2.683448071544710E-002
 -9.580887370646242E-002
 -9.599633379282869E-002
 -0.329420245864023     
 -0.358141057870851     
 -0.336860198878896     
 -0.169933284750899     
 -0.169276645487826     
 -0.202677921187114     
 -0.203565773561733     
 -0.354978999810101     
 -1.153262529476319E-002
 -1.081961668992481E-002
  0.756158356146524     
  0.754476721457781     
 -0.306217838074831     
 -0.362682286146074     
 -8.013384625906474E-002
 -8.010835511249638E-002
 -0.358340278408449     
  4.774421243297355E-003
 -0.282145166316544     
 -0.125733017555004     
 -0.126199362506484     
  5.479422006655171E-003
 -0.360729759865426     
 -0.359222349902965     
 -0.277827796869275     
  0.738503783976417     
 -0.366759868293531     
 -6.517135279686100E-002
 -6.483725587710290E-002
 -0.234431314399689     
 -0.235749593248745     
  2.163429874148032E-002
  2.108544886051969E-002
 -0.312926596290705     
 -0.345568730467740     
  0.736950204148664     
 -0.354087435980960     
  0.323576545777082     
  0.324011651611515     
  0.309865333813837     
  0.310522078263175     
  3.691627632088729E-002
  0.772442978423143     
  3.713677401446820E-002
  0.337886570413669     
  0.338259853183431     
  0.296750852750346     
  0.295635493874930     
  0.353199926818979     
  0.352809347363204     
  0.774141807872952     
  5.134621707698398E-002
  5.275391993629973E-002
 -5.159683489670506E-002
 -5.216506350842198E-002
  0.282341632896528     
  0.280641170787309     
  0.368273268750584     
  0.367861186339598     
  0.774078931890049     
 -0.321055003830784     
  6.802052908551230E-002
  6.609961879488110E-002
 -0.364237349442234     
  0.265650700547052     
  0.267673129377930     
  0.382966012313215     
  0.383372841964453     
  0.719734389758818     
  0.721093468092548     
  0.250959662114252     
  0.252880592328162     
  8.142041681964907E-002
  8.313023006168214E-002
  0.398103915527518     
  0.398477738054974     
 -0.185246520164293     
 -0.184445791468551     
  0.702950218057554     
  0.704091546861842     
  0.237998097573776     
  0.236295413703542     
 -0.107880909057303     
 -0.107544062743029     
  9.822193585559574E-002
  9.687025632303581E-002
  0.774661985412463     
  0.413623890158108     
  0.413300905955273     
  0.687732480253487     
  0.686794008050949     
 -0.248343969081295     
 -0.246579986909673     
  0.221413137267775     
  0.223013208160348     
  0.113415228600875     
  0.112378274943667     
  0.428885954233233     
  0.428619132418260     
  0.206309523333634     
  0.207875968446218     
  0.671161102435420     
  0.671927830001137     
  0.127915438657671     
  0.128842137383971     
  0.190962604609539     
  0.192489470729943     
  0.144624639724170     
  0.143534617936952     
  0.176744850568203     
  0.175277620153145     
  0.444120557113498     
  0.444335658764541     
  0.160693974585561     
  0.159356511859154     
  0.655779218202064     
  0.656401402678689     
 -0.370160195773935     
 -0.217488611505838     
 -0.218501696293338     
  0.459765739689874     
  0.459938527973525     
  0.640935202220272     
  0.640436803716192     
  0.474881445968419     
  0.475024279254982     
  0.625355995677158     
  0.624966661938248     
 -0.369814280754542     
  0.489399179750877     
  0.489518391716429     
 -0.362363586604826     
  0.609292153758288     
  0.609581702951063     
 -3.980128934239002E-002
 -3.885885861378358E-002
  0.503810601656661     
  0.503907506035848     
  0.593891358528087     
  0.594089437811448     
  0.518230727376992     
  0.518301814911678     
  0.579013699808555     
  0.578888283962731     
  0.532847955620073     
  0.532809123091553     
  0.563373227270500     
  0.563309272532115     
  0.547689464712155     
  0.547694363567485     
 -0.291615643801571     
 -0.154928283122431     
 -0.154244945713345     
  0.769928438612872     
 -0.261424823645159     
 -0.263889349841937     
 -9.070485018486034E-002
 -9.080783814199178E-002
 -0.296678769578883     
 -2.298307635734351E-002
 -2.177704223130096E-002
 -0.363054607714649     
  0.753705095829354     
 -0.138494738978977     
 -0.137849193781831     
 -0.375242891924096     
 -0.328126783434463     
 -0.337250286489862     
 -0.371138215492035     
  0.772604092754783     
 -0.372750836319306     
 -5.780858605884441E-003
 -4.578248895169012E-003
 -7.554205426729464E-002
 -0.374865086324652     
 -7.530371454117554E-002
  0.751294080743694     
 -0.167573723437538     
 -0.166782865794547     
 -0.199700492467919     
 -0.198791954660791     
 -0.380522328449171     
 -0.305118637993099     
 -0.373047050404094     
 -0.277309318164040     
 -0.280939930911818     
 -0.378240254777422     
 -0.235493068509144     
 -0.234417962244429     
  1.137240505236868E-002
  1.268926709485781E-002
  0.788862169833329     
 -0.118644433625745     
 -0.119201037969041     
 -0.380653225424215     
  0.734852814471686     
 -0.385396407794513     
 -0.355087139782592     
  2.979264883387594E-002
  2.835856348482094E-002
  0.317294817134499     
  0.317757112649734     
  0.330015850859384     
  0.330360529003043     
 -5.818663697513735E-002
  0.305104261012746     
  0.305953875927740     
  4.346626545010191E-002
  0.791758360164425     
 -0.310602491803473     
 -0.344595440724205     
 -5.722755186849490E-002
  0.732753504861287     
  4.461837494261604E-002
  0.345423527729701     
  0.345847661031903     
  0.289686387023402     
  0.291609034031015     
  0.791082304085072     
  5.654777922931405E-002
  0.361128097360855     
  0.360616204070506     
  6.001114288901829E-002
  0.276939745789370     
  0.273879517480835     
  0.375830594890823     
  0.376364828739739     
  7.242942438356582E-002
  7.513047405524624E-002
  0.259116852112075     
  0.262173670604511     
 -0.380519067839384     
 -0.389531183892615     
  0.391043163527279     
  0.391540359549405     
  0.714431750854847     
  0.716192125875405     
  0.245004140720848     
  0.247334386803523     
  0.792616869474623     
  8.812003663797970E-002
  9.016529672288662E-002
  0.406258196451165     
  0.406682315571376     
  0.232414729912122     
  0.230320035271171     
  0.792394202143424     
  0.697180908811971     
  0.698621276636933     
  0.105269663153904     
  0.103888287013215     
 -0.101683522372187     
  0.215266592559014     
  0.217367468209096     
 -0.102021813247696     
  0.421908387690905     
  0.421573506183147     
  0.120572099924925     
  0.119637651638798     
  0.681231497546717     
  0.682421810346144     
  0.199988581108570     
  0.202105428956152     
 -0.150887786414486     
 -0.150068125880555     
  0.135348404006443     
  0.136353846597166     
  0.184354266508230     
  0.186377643441282     
  0.151236306293979     
  0.152937714293019     
  0.437391897802700     
  0.437139348530501     
  0.167850597052428     
  0.169871434675102     
 -0.319661698458688     
  0.665757550287407     
  0.666746573960832     
  0.770284523482280     
  0.453166440087369     
  0.453349704884868     
  0.650439221836775     
  0.651257643380644     
  0.470013466360394     
  0.470146198174936     
  0.635660758175560     
  0.634990139091463     
  0.483709791703187     
  0.483819983647275     
 -0.215889771500065     
 -0.214943613499529     
  0.619669810751356     
  0.619134977510060     
 -0.255727164803621     
 -0.254062122164297     
  0.498148276169090     
  0.498071759864218     
  0.602348109489860     
  0.602749309512478     
  0.511965288569459     
  0.512021519438502     
  0.587802398284759     
  0.588070797875856     
  0.526322020164368     
  0.526331750349005     
  0.573610415828292     
  0.573821677116153     
  0.540613308862673     
  0.540640028012942     
  0.555350413617948     
  0.555459927551913     
 -0.180516385358115     
 -0.179608058875083     
 -0.386853409639878     
 -3.615597552775342E-002
 -3.418878805063618E-002
  0.786101001270919     
 -0.290825631509446     
 -0.382023988100262     
  0.766785730922467     
 -8.370214325576265E-002
 -8.364249310596744E-002
 -0.374507693911805     
  0.790043723667682     
 -0.362708322468605     
 -0.325367898464613     
 -0.295053320541611     
 -1.746795245770532E-002
 -0.393049222831985     
 -1.555653634670005E-002
  0.750272287675494     
 -0.132019163085320     
 -0.131203956292425     
 -0.389716299249829     
 -0.387219407934145     
 -0.336488890761615     
 -0.392864805017123     
 -0.393007749263715     
  2.335605277575001E-003
  8.437773158415515E-004
 -0.399642763328287     
  0.747217894081368     
  0.805550612402261     
 -0.397305158995724     
 -0.235086642388835     
 -0.234334145303512     
 -0.301075735309901     
 -0.163914749264183     
 -0.162986938296658     
 -0.194445489074959     
 -0.193426962010333     
 -0.400431474337354     
 -0.107945359548248     
 -0.108637153924234     
 -0.278793455232085     
 -0.281662842596465     
  1.865082074419512E-002
 -0.395445228955399     
  2.128973623931073E-002
  0.787983833297159     
 -0.405438085164883     
  0.729747093634252     
  0.810116285281226     
  4.257797451079789E-002
  3.700203320570229E-002
  0.808481789421797     
  0.317840322601595     
  0.317906627011822     
  0.337977809190289     
  0.338322489133898     
  0.300218426797300     
  0.301156156408771     
 -0.355179540767496     
  5.218421913994959E-002
  0.353132352365376     
  0.353735808112560     
  0.727179388412387     
  0.282557391098287     
  0.286510937359179     
 -0.382395457409311     
 -0.342424083089286     
  6.712055814712610E-002
  0.369250959404660     
  0.368533153808260     
  0.271347279167728     
  0.265545744900922     
  6.318837658372206E-002
  0.811490729177479     
  7.902432269078424E-002
  8.212281356862929E-002
  0.253585072241028     
  0.256897924906296     
 -0.305257307732672     
  0.383855247904412     
  0.384515055364797     
  0.810664935475310     
  0.239669219400110     
  0.241680680936773     
  9.693169242026999E-002
  9.491551936724656E-002
  0.399138168056271     
  0.399714536131447     
  0.707011551669821     
  0.709090618536548     
 -0.410287637439298     
  0.227134561792437     
  0.224187399040733     
  0.811708434162178     
  0.783243398844188     
 -4.783463601958128E-002
  0.112155351453153     
  0.111240794929731     
  0.414711994475782     
  0.414288026828922     
  0.690824463592834     
  0.692486940662045     
  0.209287844700879     
  0.211693389744051     
  0.126893730960495     
  0.127269387298235     
 -0.398970859157867     
 -0.251957233589307     
 -0.251018486068316     
  0.193646694437456     
  0.196845862903456     
 -4.523950095001368E-002
  0.142720015106289     
  0.143780294958776     
  0.180203690794260     
  0.178283016566572     
  0.430038442775862     
  0.429741184461072     
  0.158465251195371     
  0.162237054529428     
  0.675774573377549     
  0.677252226750545     
  0.445720669109178     
  0.445530876851286     
  0.660215194323720     
  0.661407801334748     
  0.462354704152132     
  0.462457273644794     
  0.645470416823231     
  0.646540691994566     
 -6.546909924768375E-002
  0.486139968904959     
  0.486184289178130     
  0.630313173029178     
  0.629471330634860     
  0.613691832748482     
  0.614431689289074     
  0.513359632181290     
  0.513341049361718     
  0.590205079640027     
  0.590695178643918     
 -6.432878867187075E-002
 -0.148387285294110     
 -0.147316998250225     
  0.540767431070003     
  0.540894656574555     
  0.566014443540511     
  0.566321802031856     
  0.802626679062143     
  0.767561458303718     
 -0.316719955467783     
  0.807972633378876     
 -0.414403990127139     
 -0.402436435980388     
 -0.403075160102932     
 -3.096407513891254E-002
 -2.662415213738077E-002
 -0.172181015863765     