 TITLE="euler solver on unstructured grid" 
 VARIABLES= "X" "Y"  "P" "Rou" "U"  "V"  "nuT"
 ZONE NODES=        5306  ELEMENTS=       10382  ZONETYPE=FETRIANGLE
 DATAPACKING=BLOCK
 VARLOCATION=([3-7]=CELLCENTERED)
 -0.272999953533806     
 -0.264990837895821     
 -0.256987294287852     
 -0.248984679946856     
 -0.240982554349091     
 -0.232980746047480     
 -0.224979166937274     
 -0.216977764631867     
 -0.206309113367347     
 -0.195641662719542     
 -0.184973376375364     
 -0.174305229331936     
 -0.163638201944103     
 -0.152970279924965     
 -0.142302451963597     
 -0.131635707939685     
 -0.120968040709953     
 -0.110300443725898     
 -9.963391103432080E-002
 -8.896643846845800E-002
 -7.829902186101631E-002
 -6.763265704470210E-002
 -5.696534163866029E-002
 -4.210797756495967E-002
 -2.725069623828603E-002
 -1.239349111031347E-002
  2.464643176501956E-003
  1.732171078963114E-002
  3.217871708661804E-002
  4.703566504397442E-002
  6.189255823351438E-002
  7.674940022705205E-002
  9.160619340579677E-002
  0.106463941341386     
  0.121320645820080     
  0.136177309222912     
  0.151033933931091     
  0.165890521135222     
  0.180747073811816     
  0.195603593151479     
  0.210461080939940     
  0.225317537772856     
  0.240173966031258     
  0.255030366905753     
  0.269886740991642     
  0.284743089479529     
  0.299599414155323     
  0.314456715018845     
  0.329312993261055     
  0.344169250072380     
  0.359025485452821     
  0.373881700592982     
  0.388737896088165     
  0.403594071938370     
  0.418451228738723     
  0.433307367084880     
  0.448163486976665     
  0.463019589009379     
  0.477875673778324     
  0.492731740688199     
  0.507587789739003     
  0.522444821525863     
  0.537300836049130     
  0.552156832713328     
  0.567012812113757     
  0.581868773059813     
  0.596724716742101     
  0.611580641374714     
  0.626437547552777     
  0.641293435276644     
  0.656149302760231     
  0.671005150598840     
  0.685860978197169     
  0.700716784364614     
  0.715572569101174     
  0.726999869273733     
  0.715569173496556     
  0.700710963498213     
  0.685852774930755     
  0.670994607794181     
  0.656136460897887     
  0.641278333646571     
  0.626420226635534     
  0.611561138079048     
  0.596703067976758     
  0.581845016924143     
  0.566986983135296     
  0.552128967800822     
  0.537270969730116     
  0.522412989518481     
  0.507554026570791     
  0.492696080886692     
  0.477838153061664     
  0.462980243095706     
  0.448122350393516     
  0.433264475550398     
  0.418406619161652     
  0.403547781227456     
  0.388689962342758     
  0.373832163103038     
  0.358974383508295     
  0.344116624153833     
  0.329258886230255     
  0.314401169737562     
  0.299542475866535     
  0.284684805807426     
  0.269827159560410     
  0.254969538911395     
  0.240111945050987     
  0.225254378574486     
  0.210396840672499     
  0.195538333726411     
  0.180680858331170     
  0.165823416272862     
  0.150966008742089     
  0.136108638715365     
  0.121251307383294     
  0.106394017127085     
  9.153577032812489E-002
  7.667856877196651E-002
  6.182141603060094E-002
  4.696431448523767E-002
  3.210726770769082E-002
  1.725027926977448E-002
  2.393352148000437E-003
 -1.246450829973293E-002
 -2.732129790666359E-002
 -4.217801131489314E-002
 -5.703464197609574E-002
 -6.770132278983000E-002
 -7.836695419364617E-002
 -8.903353380598053E-002
 -9.970005745989378E-002
 -0.110365520988447     
 -0.121031920224168     
 -0.131698249214212     
 -0.142363501410430     
 -0.153029669668839     
 -0.163695743869476     
 -0.174360712701774     
 -0.185026561878122     
 -0.195692271753720     
 -0.206356817326046     
 -0.217022162281301     
 -0.225020757140815     
 -0.233019175195530     
 -0.241017364058839     
 -0.249015235625995     
 -0.257012618449919     
 -0.265009072006872     
  -10.2670451580862     
  -9.26704533527870     
  -8.26704551247116     
  -7.26704568966362     
  -6.26704586685608     
  -5.26704604404854     
  -4.26704622124101     
  -3.26704639843347     
  -2.26704657562593     
  -1.26704675281839     
 -0.267046930010850     
  0.732952892796689     
   1.73295271560423     
   2.73295253841177     
   3.73295236121931     
   4.73295218402685     
   5.73295200683438     
   6.73295182964192     
   7.73295165244946     
   8.73295147525700     
   9.73295129806454     
   9.73235599571224     
   9.73176069335995     
   9.73116539100765     
   9.73057008865536     
   9.72997478630306     
   9.72937948395077     
   9.72878418159847     
   9.72818887924617     
   9.72759357689388     
   9.72699827454158     
   9.72640297218929     
   9.72580766983699     
   9.72521236748470     
   9.72461706513240     
   9.72402176278010     
   9.72342646042781     
   9.72283115807551     
   9.72223585572322     
   9.72164055337092     
   9.72104525101863     
   8.72104542821109     
   7.72104560540355     
   6.72104578259601     
   5.72104595978847     
   4.72104613698093     
   3.72104631417339     
   2.72104649136585     
   1.72104666855832     
  0.721046845750776     
 -0.278952977056763     
  -1.27895279986430     
  -2.27895262267184     
  -3.27895244547938     
  -4.27895226828692     
  -5.27895209109446     
  -6.27895191390200     
  -7.27895173670954     
  -8.27895155951707     
  -9.27895138232461     
  -10.2789512051322     
  -10.2783559027799     
  -10.2777606004276     
  -10.2771652980753     
  -10.2765699957230     
  -10.2759746933707     
  -10.2753793910184     
  -10.2747840886661     
  -10.2741887863138     
  -10.2735934839615     
  -10.2729981816092     
  -10.2724028792569     
  -10.2718075769046     
  -10.2712122745523     
  -10.2706169722000     
  -10.2700216698477     
  -10.2694263674954     
  -10.2688310651431     
  -10.2682357627908     
  -10.2676404604385     
 -0.221542686547747     
 -0.221749944909970     
 -0.212386727893185     
 -0.212553914019526     
 -0.230449405307157     
 -0.230182207600359     
 -0.218065119581430     
 -0.218388731661503     
 -0.202548868936458     
 -0.202409279553044     
 -0.239416876469733     
 -0.239083001720630     
 -0.226620976047738     
 -0.227044055000793     
 -0.208976353452056     
 -0.209238110130888     
 -0.248314409885522     
 -0.248658719669472     
 -0.192208696160863     
 -0.192090056286979     
 -0.235838006528325     
 -0.236422782113806     
 -0.276095710387986     
 -0.275158914327433     
 -0.257819085846164     
 -0.257637438707334     
 -0.215734642232186     
 -0.216162138154623     
 -0.199016620933008     
 -0.199227248748375     
 -0.223049320922868     
 -0.223547538583413     
 -0.282819498535676     
 -0.282242941159304     
 -0.181838055217724     
 -0.181734199712094     
 -0.266649276897978     
 -0.266621548449581     
 -0.284084360244040     
 -0.281976044297414     
 -0.246907473664538     
 -0.246147119497448     
 -0.289501356108409     
 -0.206172935007962     
 -0.206515157592959     
 -0.275517352686005     
 -0.273536495354679     
 -0.171594171568937     
 -0.171498685977661     
 -0.291897151521648     
 -0.188736362726598     
 -0.188906808521516     
 -0.230960695070379     
 -0.231665545165267     
 -0.290906174038429     
 -0.223772369031001     
 -0.224436025193512     
 -0.161315970018441     
 -0.161223791170012     
 -0.257744946341320     
 -0.256994892545273     
 -0.291050836011584     
 -0.214264193646091     
 -0.214800130223446     
 -0.293341739732377     
 -0.195652657881024     
 -0.195918936616144     
 -0.150723951319309     
 -0.150633014277409     
 -0.178780158002084     
 -0.178923413207363     
 -0.284718274391290     
 -0.267822613151110     
 -0.267833699110096     
 -0.241937811877344     
 -0.243007957848635     
 -0.299522802568461     
 -0.278844009497598     
 -0.139813455693189     
 -0.139724714900731     
 -0.300986061612950     
 -0.301956323989496     
 -0.276497917432071     
 -0.203296804378518     
 -0.203704425186341     
 -0.169296312085564     
 -0.169427461355886     
 -0.128675430572282     
 -0.128759945664464     
 -0.224069616305587     
 -0.224904951779261     
 -0.185096315293367     
 -0.185305075216071     
 -0.293644651741007     
 -0.234419801168802     
 -0.235478793260427     
 -0.117715631862078     
 -0.117638350549474     
 -0.254609657072010     
 -0.256139485141035     
 -0.159426542200182     
 -0.159298936034951     
 -0.302154532648161     
 -0.291264608054850     
 -0.303577331770576     
 -0.106772898147779     
 -0.106706890520926     
 -0.212410085917127     
 -0.213026698423080     
 -0.191824429179958     
 -0.191518392075642     
 -0.148401881771200     
 -0.148279201858291     
 -0.303606751387889     
 -0.176284713071872     
 -0.176457672708616     
 -9.587510608587473E-002
 -9.582548828737771E-002
 -0.285089673101845     
 -0.311356585865423     
 -0.267314680488768     
 -0.269055432901558     
 -0.309825150060742     
 -0.310715346262270     
 -0.303931372127444     
 -0.136947312802787     
 -0.136832977444352     
 -0.279441231846438     
 -8.519804134714679E-002
 -8.516825662779205E-002
 -0.313360637305678     
 -0.315327138704402     
 -0.168844751928240     
 -0.168669841074798     
 -7.477435784393290E-002
 -7.477274197457393E-002
 -0.200100286209552     
 -0.199652184286877     
 -0.314756698528803     
 -0.125373510188475     
 -0.125272588444047     
 -0.279113687408424     
 -0.249509598689991     
 -0.251367251793585     
 -0.223283580013186     
 -0.224204494894197     
 -0.179547504165436     
 -0.179779903843623     
 -0.291351478599683     
 -6.365633926509613E-002
 -6.369855793737537E-002
 -0.236109672214525     
 -0.237423868967507     
 -0.113936104626451     
 -0.114016802432372     
 -0.157852774884410     
 -0.157683324156141     
 -0.291970801057596     
 -5.088628939917792E-002
 -5.079049348217472E-002
 -0.317804373225144     
 -0.315767844259112     
 -0.102996578673354     
 -0.102945437345705     
 -0.322723089300463     
 -0.209752184781600     
 -0.210396965204913     
 -0.145666179359878     
 -0.145510824830344     
 -3.670864504488654E-002
 -3.655880709270851E-002
 -0.301739397572390     
 -0.186110614416177     
 -0.185780131787789     
 -0.324115571147120     
 -0.265600027762904     
 -0.268670542585618     
 -9.158703950545594E-002
 -9.157938388296104E-002
 -0.305400567094829     
 -2.200051936884203E-002
 -2.180808405423717E-002
 -0.326486763386330     
 -0.133562490385234     
 -0.133700423102457     
 -8.159317395305164E-002
 -8.162084749399857E-002
 -0.329557537420650     
 -0.279244840346293     
 -0.328881259876335     
 -0.169880183809562     
 -0.170124338934113     
 -0.284733532136376     
 -6.967741742514435E-003
 -6.759097896212127E-003
 -7.217703472400491E-002
 -7.228099052270895E-002
 -0.121036063527090     
 -0.121144462977367     
 -0.195040189867337     
 -0.195503615657266     
  8.239464941569985E-003
  8.419168556019921E-003
 -0.315154518178879     
 -0.236958820266600     
 -0.235627715211367     
 -0.221560263504872     
 -0.222459817266488     
 -5.951440189882941E-002
 -5.972880727782579E-002
 -0.249562426893686     
 -0.251559498646543     
 -0.319879613609620     
  2.356669437616687E-002
  2.348920951725782E-002
  0.322709096075489     
  0.322560864033469     
 -0.110152254918675     
 -0.110081078272581     
  0.337385192040922     
  0.337273898935831     
  0.308128549026988     
  0.307903373758135     
  3.869312134861875E-002
  3.858271296773883E-002
  0.726578716425021     
  0.727034038301967     
 -0.154668412881537     
 -0.154454708964355     
 -0.292324345373024     
 -4.586127706390244E-002
 -4.619558519818576E-002
  0.352188169648557     
  0.352088238523133     
  0.293537673059430     
  0.293198424556268     
 -0.333033413004532     
  5.380874187622723E-002
  5.348584193757677E-002
  0.366976622328287     
  0.367074689854231     
 -0.329611036188259     
  0.278860728896274     
  0.278402781144905     
  0.381904453810179     
  0.381999453856577     
  6.838436245493644E-002
  6.883941080616540E-002
  0.711797246465767     
  0.712238505730673     
  0.264097176354700     
  0.263564590008637     
  0.396857724637055     
  0.396944475886511     
  0.696540979096379     
  0.696930707128206     
  0.249273600964147     
  0.248729940364322     
  8.381845307570128E-002
  8.334941975019808E-002
  0.411837029748739     
  0.411910865349613     
  0.234405301948011     
  0.233888806913383     
  0.681295186581746     
  0.681625894210859     
  9.878787838082125E-002
  9.837574823277698E-002
  0.426846673252056     
  0.426905619803905     
  0.219492181508929     
  0.219006583292216     
  0.666144788860266     
  0.666419819862429     
  0.113786985643017     
  0.113438449038160     
  0.204521438637154     
  0.204058876767832     
  0.441877968304730     
  0.441922426094321     
  0.128847862474313     
  0.128527711869352     
  0.651067244216042     
  0.651293513007163     
  0.189476363572688     
  0.189034299724541     
  0.143982782262513     
  0.143646131189581     
  0.174350832147335     
  0.173935571985433     
  0.456886326582589     
  0.456918471310384     
  0.159168510900903     
  0.158791314261961     
  0.636016272064137     
  0.636200447043287     
  0.471808629940092     
  0.471830972310277     
  0.620959068243245     
  0.621106721976805     
 -9.964009800313504E-002
 -9.962445295277020E-002
 -0.337812048381777     
  0.486643075649639     
  0.486628830636826     
 -0.267189635984700     
 -0.264112262111331     
  0.605900318524808     
  0.606015749355983     
  0.501390897054440     
  0.501397512752869     
  0.590956122091653     
  0.590868628856781     
  0.516152925432233     
  0.516150787717541     
  0.575920112979864     
  0.575856425374284     
  0.530965923559630     
  0.530953093450663     
  0.560880333514805     
  0.560836595521239     
  0.545847910180487     
  0.545874611966641     
 -3.145849865471387E-002
 -3.190587725300997E-002
 -0.335754373483043     
 -0.329758993429072     
 -0.299595076082055     
 -0.142272208996192     
 -0.142458215862237     
 -0.179312522227775     
 -0.178961742104914     
 -0.206418609861790     
 -0.207044890064642     
 -0.335473903432596     
 -0.341545031144887     
 -8.429347310575490E-002
 -8.438918648366515E-002
 -1.635371689553497E-002
 -1.687693511149496E-002
 -0.342547865989877     
 -0.306245166453718     
  0.741578548078566     
  0.741914838338241     
 -0.345794298425274     
 -0.343204675132056     
 -0.130496546054334     
 -0.130660997268292     
 -1.341279102596768E-003
 -0.278613132974643     
 -8.095242282124009E-004
 -0.344554168392259     
  0.740936971730455     
 -0.283419692444825     
 -0.164303849819560     
 -0.164019892495755     
 -0.349401231616677     
 -6.932220135085478E-002
 -6.960445952257838E-002
  1.437028487927627E-002
  1.480507935310754E-002
 -0.314174477356755     
 -0.113026631938533     
 -0.112941436133309     
  0.739927687443487     
 -0.235677244873046     
 -0.234481543670649     
 -5.538450326834091E-002
 -5.585981732673859E-002
 -0.321053039276796     
 -0.190030192635478     
 -0.189562728700086     
  3.016852729105909E-002
  0.316044995154319     
  0.316325498412550     
  0.330456547541651     
  0.330632830767588     
  3.003699890159441E-002
  0.302136598144955     
  0.301648801904891     
  0.345279116163545     
  0.345133918146855     
  4.513749887288614E-002
  4.552193894921306E-002
 -0.219618258091774     
 -0.220428795236584     
 -0.248568961760642     
 -0.250364849436242     
  0.287759059059161     
  0.286986898631120     
  0.360169791206653     
  0.360023566520476     
  6.079100170529431E-002
  5.996071242773798E-002
  0.757529414866335     
  0.272135098497383     
  0.273148536087816     
  0.375005207685450     
  0.375153548661032     
 -0.348905110767654     
  0.757669224700771     
  0.723735486080273     
  0.724709099192259     
  7.590645567811752E-002
  7.494828047235960E-002
  0.257304110931653     
  0.258396388198393     
  0.390033717956734     
  0.390172126755423     
  0.707733944424670     
  0.708603378759170     
  0.243555514548095     
  0.242522038180287     
  0.405219360851885     
  0.405103373999487     
 -4.157609878236795E-002
 -4.225572481374968E-002
  9.011435307999341E-002
  9.096092644927582E-002
  0.692653151696018     
  0.691907631139410     
  0.227688141328355     
  0.228638024302435     
  0.420318059637792     
  0.420231872893590     
  0.105365344733072     
  0.106039417277871     
  0.676983030925879     
  0.676355484863719     
  0.212729837652488     
  0.213626924846173     
  0.120663129840344     
  0.121220615231896     
  0.435437235888148     
  0.435492602570889     
 -0.292236249183357     
  0.661021854909312     
  0.661546640366502     
  0.197621344540087     
  0.198482413269381     
  0.136567282260404     
  0.136008781315360     
 -0.147629003747912     
 -0.147362746021367     
  0.182340589021794     
  0.183159961838854     
  0.152080738473571     
  0.151428700105923     
  0.450689405254961     
  0.450717845305600     
  0.166907827111982     
  0.167661198165524     
  0.645788000053584     
  0.646224905030877     
  0.465829350605126     
  0.465821515074898     
  0.630910911186462     
  0.630549624005889     
 -0.353481051001211     
  0.480674121841084     
  0.480681658875265     
  0.615552088250512     
  0.615257491294925     
  0.495344407462216     
  0.495323686633648     
  0.599991648567409     
  0.600226686274100     
 -0.263234951969118     
 -0.265969263280670     
  0.509957750927507     
  0.509922955493994     
  0.584845572660324     
  0.585029727196237     
  0.524573017569704     
  0.524625201396967     
  0.569821023413240     
  0.569678749441183     
  0.539373756412732     
  0.539449076830600     
  0.554544531380525     
  0.554438519616379     
  0.756620076714706     
 -0.345401966519939     
 -0.352234742864870     
 -0.298134031150952     
 -2.758279616588767E-002
 -2.671465365605023E-002
 -9.593044358009627E-002
 -9.587476275101199E-002
 -0.329322412977101     
 -0.358171743357583     
 -0.336962173318326     
 -0.169793974963302     
 -0.169416191140086     
 -0.202828093457140     
 -0.203415617928256     
 -0.354943131754851     
 -1.165533076657182E-002
 -1.069789355969863E-002
  0.756200379742049     
  0.754431179255279     
 -0.306322775132449     
 -0.362733218359485     
 -8.025869510705505E-002
 -7.998343134217398E-002
 -0.358287961337712     
  4.650357371275663E-003
 -0.282037904302345     
 -0.125867167121322     
 -0.126065318018830     
  5.602058325364087E-003
 -0.360656725431426     
 -0.359201847907658     
 -0.277934084492260     
  0.738553515069812     
 -0.366832210999410     
 -6.529999148009472E-002
 -6.470852669387643E-002
 -0.234584102095965     
 -0.235596103004156     
  2.175688963321031E-002
  2.096083909528581E-002
 -0.312818325333780     
 -0.345460314976848     
  0.736898334786132     
 -0.354198123961000     
  0.323681081360270     
  0.323908744443289     
  0.309971072354427     
  0.310418281999794     
  3.703802102006080E-002
  0.772405270231449     
  3.701228648380437E-002
  0.337990894670537     
  0.338156950014727     
  0.296644935565877     
  0.295743720335007     
  0.353097579778905     
  0.352913025693475     
  0.774174204638746     
  5.146800637853583E-002
  5.262987393189902E-002
 -5.146758174596580E-002
 -5.229435702199513E-002
  0.282233590792796     
  0.280751540374459     
  0.368171965623965     
  0.367963844154355     
  0.774064585519380     
 -0.321169501033461     
  6.789688233722987E-002
  6.622241204433581E-002
 -0.364234313869357     
  0.265762444800162     
  0.267563084689952     
  0.383067391667464     
  0.383272895197427     
  0.719677791187159     
  0.721148936175515     
  0.251072626621684     
  0.252768634020916     
  8.154375007528936E-002
  8.300685464634011E-002
  0.398203898288267     
  0.398379265715921     
 -0.185090661065675     
 -0.184601842974490     
  0.702890328445609     
  0.704151022540811     
  0.237884264080014     
  0.236409871756967     
 -0.107743960766110     
 -0.107680975371530     
  9.809869523985501E-002
  9.699370203515680E-002
  0.774670933795054     
  0.413526921582659     
  0.413399434008901     
  0.687794927479414     
  0.686731653048039     
 -0.248201097994942     
 -0.246721865357580     
  0.221529174128621     
  0.222897495883633     
  0.113291998203089     
  0.112501513763952     
  0.428790548139967     
  0.428716115129646     
  0.206427163919078     
  0.207758344204131     
  0.671096479273273     
  0.671992904778961     
  0.128038307222639     
  0.128718839938662     
  0.191081852026268     
  0.192369906439348     
  0.144501346309778     
  0.143657039242406     
  0.176623427721668     
  0.175398384781532     
  0.444215795752536     
  0.444241988226079     
  0.160571196888044     
  0.159478342900695     
  0.655712312716720     
  0.656469023164624     
 -0.370255318327848     
 -0.217651593769846     
 -0.218338465873224     
  0.459858795778517     
  0.459847016535892     
  0.641005350528685     
  0.640367569429508     
  0.474971570284165     
  0.474935671920682     
  0.625428609166160     
  0.624895116997266     
 -0.369829423859551     
  0.489486887010654     
  0.489432180890183     
 -0.362268204568860     
  0.609218542326070     
  0.609656505710301     
 -3.993682708730532E-002
 -3.872365259886057E-002
  0.503896299686226     
  0.503823290495288     
  0.593816405305169     
  0.594165678316695     
  0.518314746925644     
  0.518219264998311     
  0.579091893380879     
  0.578811442053022     
  0.532766783537677     
  0.532891750847665     
  0.563453796676910     
  0.563230099700687     
  0.547609358351187     
  0.547775903091726     
 -0.291730903825298     
 -0.154778370517637     
 -0.154395084477683     
  0.769867092554583     
 -0.261561616873282     
 -0.263751029816108     
 -9.084503145048313E-002
 -9.066746486871008E-002
 -0.296560978609012     
 -2.312248295140196E-002
 -2.163864151194378E-002
 -0.362935415024089     
  0.753769955723235     
 -0.138343383506564     
 -0.138000694510115     
 -0.375277626894576     
 -0.328006994635562     
 -0.337374932971488     
 -0.371102409365628     
  0.772660295881331     
 -0.372870196196805     
 -5.922537303480681E-003
 -4.438171196730887E-003
 -7.568336062262954E-002
 -0.374806637315038     
 -7.516215166737651E-002
  0.751225634275988     
 -0.167412256642925     
 -0.166944594068677     
 -0.199529525634879     
 -0.198963033784863     
 -0.380577904828702     
 -0.305243705365867     
 -0.373030485781167     
 -0.277435655401011     
 -0.280811561553900     
 -0.378159564293056     
 -0.235317864227739     
 -0.234592448480546     
  1.122969013129351E-002
  1.282987351384988E-002
  0.788809008578460     
 -0.118798700618636     
 -0.119046743392777     
 -0.380548558559436     
  0.734924521012220     
 -0.385474463341000     
 -0.355222089015202     
  2.993207364391863E-002
  2.821574897341677E-002
  0.317413301061300     
  0.317640631049486     
  0.330136916465747     
  0.330241108024323     
 -5.833714748286969E-002
  0.305227177444231     
  0.305833615130791     
  4.360201784993119E-002
  0.791804393159659     
 -0.310473225813124     
 -0.344463487854883     
 -5.707669227813023E-002
  0.732679436495801     
  4.447655842035003E-002
  0.345544614211861     
  0.345727957558539     
  0.289813080148638     
  0.291485996453104     
  0.791053717506641     
  5.668725991403342E-002
  0.361009041662222     
  0.360736645127444     
  5.987001976356734E-002
  0.276814362154749     
  0.274008051122234     
  0.375949847616257     
  0.376247090677778     
  7.257014709327655E-002
  7.498973545768732E-002
  0.259245490755049     
  0.262046132148875     
 -0.380517825531166     
 -0.389633386953244     
  0.391161042734489     
  0.391424139455208     
  0.714353912504948     
  0.716268550906549     
  0.245134448402171     
  0.247204765902041     
  0.792637899899894     
  8.826128999971383E-002
  9.002468165712664E-002
  0.406374725946230     
  0.406567529969305     
  0.232283008598988     
  0.230452141143489     
  0.792390347360970     
  0.697101225958043     
  0.698700261260701     
  0.105128942499537     
  0.104029445723947     
 -0.101837457569256     
  0.215400521329835     
  0.217233582988648     
 -0.101867662380075     
  0.421794959222701     
  0.421688701460799     
  0.120431026891685     
  0.119778439561745     
  0.681149950134104     
  0.682503166441689     
  0.200124378517759     
  0.201969231472017     
 -0.150720072556267     
 -0.150236074013078     
  0.135488829298797     
  0.136212214781567     
  0.184492067844783     
  0.186238964392301     
  0.151376469058565     
  0.152795443307552     
  0.437279867892538     
  0.437253121281024     
  0.167990438573816     
  0.169730155968769     
 -0.319798395790000     
  0.665673895846250     
  0.666830415095095     
  0.770365102052947     
  0.453278557698842     
  0.453239275693592     
  0.650353247911409     
  0.651344099065620     
  0.470122972773310     
  0.470038312402096     
  0.635749931442531     
  0.634901681853854     
  0.483813420190204     
  0.483717911629097     
 -0.215703826377804     
 -0.215129523809921     
  0.619761742934614     
  0.619043956051183     
 -0.255565435031914     
 -0.254222243994916     
  0.498045480975805     
  0.498176081239829     
  0.602254994376095     
  0.602843502892150     
  0.512064929687766     
  0.511923366362002     
  0.587711085247453     
  0.588163327367940     
  0.526423245094741     
  0.526231981950790     
  0.573513486815787     
  0.573919881309981     
  0.540517439328804     
  0.540737319974568     
  0.555251679850226     
  0.555560024697527     
 -0.180340083845944     
 -0.179784660990115     
 -0.386871472468948     
 -3.631191847105174E-002
 -3.403336345158506E-002
  0.786023288018684     
 -0.290958297127981     
 -0.381893883327801     
  0.766700192102416     
 -8.386392378075709E-002
 -8.348015024648749E-002
 -0.374652812583269     
  0.790114843709332     
 -0.362563923179259     
 -0.325225168392749     
 -0.294917364108708     
 -1.762763699465459E-002
 -0.393087009765676     
 -1.539893990520562E-002
  0.750361015274333     
 -0.131846858706793     
 -0.131376343541938     
 -0.389693975403164     
 -0.387174747057354     
 -0.336637730900799     
 -0.392992658423465     
 -0.392943598815792     
  2.494580124832687E-003
  6.827462636773153E-004
 -0.399702122725007     
  0.747125573793279     
  0.805481164184933     
 -0.397216806808254     
 -0.234886658679907     
 -0.234533772786053     
 -0.301221800240274     
 -0.163735932934710     
 -0.163166081236596     
 -0.194251992311850     
 -0.193620831296170     
 -0.400317383127259     
 -0.108121202592949     
 -0.108461047875816     
 -0.278943765087453     
 -0.281509535695576     
  1.848916713164098E-002
 -0.395600263694021     
  2.144916376700337E-002
  0.788080209489550     
 -0.405521562175717     
  0.729841942506118     
  0.810177039407067     
  4.273391786413231E-002
  3.684084439184534E-002
  0.808437554202543     
  0.317978000518503     
  0.317771138423324     
  0.338117502913891     
  0.338184100083770     
  0.300358495355149     
  0.301019975713364     
 -0.355340352595597     
  5.202737783600185E-002
  0.353269089735423     
  0.353600344814130     
  0.727082065470991     
  0.282706809285435     
  0.286369164920183     
 -0.382238576798131     
 -0.342267171200822     
  6.696129645281575E-002
  0.369113800967648     
  0.368671828747807     
  0.271206073408494     
  0.265689455286730     
  6.334779206102847E-002
  0.811525191363975     
  7.918191328381602E-002
  8.196678647731956E-002
  0.253729026796669     
  0.256751550890978     
 -0.305106565425092     
  0.383989199504583     
  0.384382904361491     
  0.810646600208226     
  0.239818336897926     
  0.241534997417776     
  9.677248509841184E-002
  9.507631737853971E-002
  0.399273844739851     
  0.399580870203999     
  0.706912113026875     
  0.709188509749638     
 -0.410396744569016     
  0.226983553259237     
  0.224335591416387     
  0.811716429963796     
  0.783140756186941     
 -4.800640732948256E-002
  0.111998776485426     
  0.111397748862311     
  0.414582561068065     
  0.414419470262446     
  0.690727477606028     
  0.692583078142709     
  0.209441067353833     
  0.211542890371250     
  0.127053332731977     
  0.127108794324116     
 -0.398971962195332     
 -0.251771059883038     
 -0.251203227602951     
  0.193799078502962     
  0.196689443619802     
 -4.506667398615583E-002
  0.142876233505321     
  0.143621435829508     
  0.180046980392714     
  0.178441246323608     
  0.429906982868222     
  0.429874661343688     
  0.158624983978289     
  0.162071696425045     
  0.675672642861309     
  0.677353700730045     
  0.445593329986115     
  0.445660098301781     
  0.660114310857931     
  0.661508686723041     
  0.462486246386571     
  0.462327537747078     
  0.645363780567311     
  0.646647577542594     
 -6.564803369843755E-002
  0.486266210437616     
  0.486059683980553     
  0.630419998812845     
  0.629365079451539     
  0.613578775472763     
  0.614545497675421     
  0.513482374973081     
  0.513219813214054     
  0.590090449658447     
  0.590810852135481     
 -6.414817769414753E-002
 -0.148195774468880     
 -0.147508827311770     
  0.540648016590901     
  0.541015459784761     
  0.565893696536792     
  0.566443783788694     
  0.802532521995829     
  0.767667409313362     
 -0.316880743872957     
  0.808059151246009     
 -0.414540059996062     
 -0.402295307989096     
 -0.403095794694376     
 -3.114221354349280E-002
 -2.644715167633976E-002
 -0.171984693729968     