 TITLE="euler solver on unstructured grid" 
 VARIABLES= "X" "Y"  "P" "Rou" "U"  "V"  "nuT"
 ZONE NODES=        5306  ELEMENTS=       10382  ZONETYPE=FETRIANGLE
 DATAPACKING=BLOCK
 VARLOCATION=([3-7]=CELLCENTERED)
 -0.272758779833842     
 -0.265409518571586     
 -0.257666868421507     
 -0.249858611428064     
 -0.242015848849481     
 -0.234150684959231     
 -0.226269340008957     
 -0.218375512526667     
 -0.207834651635214     
 -0.197280626179054     
 -0.186714001677747     
 -0.176137542454245     
 -0.165553634572951     
 -0.154961288490518     
 -0.144362301869165     
 -0.133758388313662     
 -0.123148053935931     
 -0.112532760168374     
 -0.101913926414668     
 -9.128984864309903E-002
 -8.066182017116082E-002
 -7.003113431634746E-002
 -5.939596096076287E-002
 -4.457797826237074E-002
 -2.975415357087955E-002
 -1.492494920228988E-002
 -8.974429874512120E-005
  1.474916870585814E-002
  2.959241066937655E-002
  4.443977144817346E-002
  5.929099886988488E-002
  7.414584076214681E-002
  8.900412901004986E-002
  0.103866610557633     
  0.118731161085908     
  0.133598611596370     
  0.148468793974108     
  0.163341624161668     
  0.178216892015413     
  0.193094513477888     
  0.207975361579315     
  0.222857396058161     
  0.237741447915918     
  0.252627433095133     
  0.267515309567077     
  0.282404993274297     
  0.297296358130610     
  0.312190403252419     
  0.327085046349464     
  0.341981202480693     
  0.356878871646106     
  0.371777969788248     
  0.386678454878392     
  0.401580326916538     
  0.416484542990361     
  0.431389062838329     
  0.446294885576844     
  0.461201969177179     
  0.476110271610607     
  0.491019834905854     
  0.505930659062922     
  0.520843701169485     
  0.535756962992738     
  0.550671485677811     
  0.565587227195976     
  0.580504271604689     
  0.595422534846494     
  0.610342143007574     
  0.625264053175604     
  0.640186267117778     
  0.655109910036682     
  0.670034939903587     
  0.684961398747222     
  0.699889370625041     
  0.714818855537044     
  0.726357622833479     
  0.715058587397744     
  0.700300327520890     
  0.685540554609852     
  0.670779268664630     
  0.656016553742679     
  0.641252451872726     
  0.626486921026043     
  0.611719088172411     
  0.596950951544634     
  0.582181469997583     
  0.567410769617439     
  0.552638766346747     
  0.537865544242963     
  0.523091061277359     
  0.508314360362260     
  0.493537439730471     
  0.478759258236862     
  0.463979815881433     
  0.449199154692911     
  0.434417232642570     
  0.419634007701681     
  0.404848480753842     
  0.390062608003131     
  0.375275348304418     
  0.360486701657704     
  0.345696626034260     
  0.330905037376632     
  0.316111935684820     
  0.301316237784967     
  0.286519857852423     
  0.271721796770786     
  0.256921928453874     
  0.242120168844232     
  0.227316475913133     
  0.212510765603121     
  0.197701870682886     
  0.182891747356505     
  0.168079270421393     
  0.153264355820096     
  0.138446793408978     
  0.123626499130582     
  0.108803304870001     
  9.397604339592186E-002
  7.914658685496825E-002
  6.431368395837342E-002
  4.947716659122806E-002
  3.463678258116819E-002
  1.979227975582983E-002
  4.943447971576313E-003
 -9.911090146540980E-003
 -2.476963056680809E-002
 -3.963355066417362E-002
 -5.450331275463827E-002
 -6.518328873355832E-002
 -7.586575398044419E-002
 -8.655287484301061E-002
 -9.724394640594620E-002
 -0.107938263753940     
 -0.118638119320887     
 -0.129342934277660     
 -0.140052171823857     
 -0.150768334537009     
 -0.161491137789080     
 -0.172220381009486     
 -0.182959071120488     
 -0.193707595953686     
 -0.204466721599225     
 -0.215241010042277     
 -0.223333045002663     
 -0.231437562495067     
 -0.239558261047494     
 -0.247701360911588     
 -0.255878966360822     
 -0.264122178653420     
  -10.6842100798229     
  -9.68509367715559     
  -8.68597727448827     
  -7.68686087182095     
  -6.68774446915363     
  -5.68862806648630     
  -4.68951166381899     
  -3.69039526115166     
  -2.69127885848434     
  -1.69216245581702     
 -0.693046053149704     
  0.306070349517617     
   1.30518675218494     
   2.30430315485226     
   3.30341955751958     
   4.30253596018690     
   5.30165236285422     
   6.30076876552154     
   7.29988516818886     
   8.29900157085618     
   9.29811797352350     
   9.34014670085509     
   9.38217542818667     
   9.42420415551826     
   9.46623288284984     
   9.50826161018143     
   9.55029033751302     
   9.59231906484460     
   9.63434779217619     
   9.67637651950778     
   9.71840524683936     
   9.76043397417095     
   9.80246270150253     
   9.84449142883412     
   9.88652015616571     
   9.92854888349729     
   9.97057761082888     
   10.0126063381605     
   10.0546350654921     
   10.0966637928236     
   10.1386925201552     
   9.13957611748790     
   8.14045971482058     
   7.14134331215326     
   6.14222690948594     
   5.14311050681862     
   4.14399410415130     
   3.14487770148398     
   2.14576129881666     
   1.14664489614934     
  0.147528493482020     
 -0.851587909185300     
  -1.85070431185262     
  -2.84982071451994     
  -3.84893711718726     
  -4.84805351985458     
  -5.84716992252190     
  -6.84628632518922     
  -7.84540272785654     
  -8.84451913052386     
  -9.84363553319118     
  -9.88566426052277     
  -9.92769298785436     
  -9.96972171518594     
  -10.0117504425175     
  -10.0537791698491     
  -10.0958078971807     
  -10.1378366245123     
  -10.1798653518439     
  -10.2218940791755     
  -10.2639228065070     
  -10.3059515338386     
  -10.3479802611702     
  -10.3900089885018     
  -10.4320377158334     
  -10.4740664431650     
  -10.5160951704966     
  -10.5581238978281     
  -10.6001526251597     
  -10.6421813524913     
 -0.223221173588988     
 -0.219679400876258     
 -0.214177858948915     
 -0.210386422746980     
 -0.228466980843009     
 -0.231758365674997     
 -0.220116676362841     
 -0.215949829551551     
 -0.200279011602441     
 -0.204320212230645     
 -0.237535880558501     
 -0.240544205099833     
 -0.228582063172334     
 -0.224681645398993     
 -0.211155349179782     
 -0.206687229980271     
 -0.249623556840267     
 -0.246916708448484     
 -0.189845915827894     
 -0.194112141581563     
 -0.237731372007532     
 -0.234114466651901     
 -0.275403773398282     
 -0.275398331420492     
 -0.256264607004726     
 -0.258742848284395     
 -0.218158984253431     
 -0.213352447734945     
 -0.201321429595524     
 -0.196568014809894     
 -0.225318274486279     
 -0.220881558814876     
 -0.282401623936094     
 -0.282244969867670     
 -0.179394419941817     
 -0.183855535405210     
 -0.267493277356084     
 -0.265298138399809     
 -0.283252815346850     
 -0.282414845926567     
 -0.244697767376682     
 -0.247930078677930     
 -0.289309650811267     
 -0.208756722059937     
 -0.203562360659358     
 -0.274436266820012     
 -0.274115243551818     
 -0.169072625475348     
 -0.173716096863730     
 -0.291345629024125     
 -0.191147630834609     
 -0.186159463394926     
 -0.233253050123490     
 -0.228963179635455     
 -0.291091404733918     
 -0.226380908908574     
 -0.221426529186312     
 -0.158710665643128     
 -0.163543117360288     
 -0.255713644186514     
 -0.258591061365897     
 -0.291725538048289     
 -0.217108610616117     
 -0.211569789687590     
 -0.292345848422746     
 -0.198365954089407     
 -0.192855417402019     
 -0.148036397713972     
 -0.153053256123424     
 -0.181279445929907     
 -0.176105919049367     
 -0.283469869982390     
 -0.266042415816319     
 -0.269161926078485     
 -0.244219126882298     
 -0.240301680149335     
 -0.299347430350499     
 -0.279796467608541     
 -0.137056606174482     
 -0.142233446841814     
 -0.301349308644651     
 -0.301261719175540     
 -0.274996038556021     
 -0.206322120252815     
 -0.200312548861021     
 -0.171907625809506     
 -0.166514789525004     
 -0.131257381547836     
 -0.125949279560275     
 -0.227147063282061     
 -0.221420573718101     
 -0.187893720126435     
 -0.182176703670698     
 -0.292189390811176     
 -0.237152538261320     
 -0.232325648635355     
 -0.114865731073620     
 -0.120278881391469     
 -0.256761821227356     
 -0.253555525570530     
 -0.156388164294581     
 -0.162053533224140     
 -0.303034324635254     
 -0.292492438255335     
 -0.302386679000511     
 -0.103892257310800     
 -0.109397315024154     
 -0.215743596019852     
 -0.209306185734443     
 -0.188335513046544     
 -0.194662543169701     
 -0.145255990277834     
 -0.151160680542109     
 -0.301877669577568     
 -0.179111653027170     
 -0.173315928994462     
 -9.296786260137925E-002
 -9.856162348754822E-002
 -0.283468709533260     
 -0.311422404347086     
 -0.269210343816046     
 -0.266742878592942     
 -0.309422346166480     
 -0.311264293226078     
 -0.305379543123995     
 -0.133723544284582     
 -0.139812380897630     
 -0.281014472386611     
 -8.227636103623351E-002
 -8.793768859188675E-002
 -0.312511660080165     
 -0.313910661154194     
 -0.165503678818489     
 -0.171709239028278     
 -7.181787725893872E-002
 -7.759549844782479E-002
 -0.196220392071474     
 -0.203169082949466     
 -0.315770840049882     
 -0.122095860452722     
 -0.128326003440067     
 -0.277160535818053     
 -0.252336390804532     
 -0.248095438804677     
 -0.226915647920521     
 -0.220159179493244     
 -0.182722996755888     
 -0.176282115048324     
 -0.289409471262984     
 -6.063955211260212E-002
 -6.660169487888833E-002
 -0.239408606100480     
 -0.233690762783723     
 -0.117034319543806     
 -0.110714084987391     
 -0.154326588799195     
 -0.160927097888129     
 -0.293807097261889     
 -5.386309462009686E-002
 -4.772407378271827E-002
 -0.319447673188598     
 -0.313734816272354     
 -9.966247782361809E-002
 -0.106094118235926     
 -0.322363197711058     
 -0.213639475983610     
 -0.206122709445640     
 -0.142036033737720     
 -0.148880017745173     
 -3.975145053243274E-002
 -3.345404617859831E-002
 -0.299407244460428     
 -0.182155317243820     
 -0.189399139911436     
 -0.324536168732695     
 -0.268123920537056     
 -0.265706082130299     
 -8.822300739119751E-002
 -9.477787776688378E-002
 -0.307485019593694     
 -2.510130315902888E-002
 -1.867523107180236E-002
 -0.325459476964279     
 -0.137030776243280     
 -0.129991948430404     
 -7.827859082156921E-002
 -8.478791088822411E-002
 -0.330698830645334     
 -0.281440566062617     
 -0.327214841318766     
 -0.173488235322652     
 -0.166210251598640     
 -0.282177864174540     
 -1.011619443642404E-002
 -3.610099439532874E-003
 -6.871617881516863E-002
 -7.561086202321454E-002
 -0.124574777238584     
 -0.117387104963163     
 -0.199112139843390     
 -0.191074414148705     
  5.055426457703379E-003
  1.157128761881228E-002
 -0.312450869539231     
 -0.232578060115378     
 -0.239561240144235     
 -0.225803655506542     
 -0.217798705632140     
 -5.595268375009989E-002
 -6.318328680940029E-002
 -0.253138949606693     
 -0.247510881485158     
 -0.322205519962624     
  2.671055089000829E-002
  2.028115404467714E-002
  0.319871107649867     
  0.324837524385968     
 -0.106448283948502     
 -0.113585593205607     
  0.334577300980117     
  0.339491915984472     
  0.305256875174684     
  0.310242592331095     
  3.547059441824392E-002
  4.171178236689500E-002
  0.725310553586925     
  0.726952456818947     
 -0.150598201684581     
 -0.158246621666764     
 -0.294808709463919     
 -4.222765206031627E-002
 -4.974969253775446E-002
  0.349411576666668     
  0.354247186047619     
  0.290627233658871     
  0.295604463002741     
 -0.334875017154283     
  5.057835993186811E-002
  5.659948230206505E-002
  0.369073267990123     
  0.364333430053797     
 -0.327265462161834     
  0.275909323886748     
  0.280875306138010     
  0.383935348617833     
  0.379297517111008     
  7.148318310971095E-002
  6.560494435356551E-002
  0.710396979011420     
  0.712337194139712     
  0.261105483239210     
  0.266099896792266     
  0.398820028703295     
  0.394284849256470     
  0.695044646933560     
  0.697164732468687     
  0.246243309510641     
  0.251325054951637     
  8.058185725586968E-002
  8.643072778278506E-002
  0.413728264960531     
  0.409295861464334     
  0.231338143819348     
  0.236542575673006     
  0.679718900665886     
  0.681974798825702     
  9.555037645943726E-002
  0.101434391743914     
  0.428664063591855     
  0.424337719867200     
  0.216389730747399     
  0.221718339236225     
  0.664495996490786     
  0.666873593772298     
  0.110549842890602     
  0.116469217140088     
  0.201385353053677     
  0.206827454450595     
  0.443617803449690     
  0.439405058866607     
  0.125613202383419     
  0.131526139727546     
  0.649349239765154     
  0.651847252238507     
  0.186309014765386     
  0.191857657191596     
  0.140754622753751     
  0.146608148076097     
  0.171156327638798     
  0.176810245516897     
  0.458544100179421     
  0.454456028303903     
  0.155953332747134     
  0.161712331555902     
  0.634231001263036     
  0.636851193995716     
  0.473381191412223     
  0.469426694256017     
  0.619108804167515     
  0.621851548997877     
 -9.580642270226170E-002
 -0.103276190549632     
 -0.337735124186201     
  0.484296885009267     
  0.488116461989586     
 -0.263489497837842     
 -0.267322386290124     
  0.603988348812268     
  0.606850898883446     
  0.502796104758648     
  0.499107043717243     
  0.591878318523396     
  0.588897789639136     
  0.517478433163387     
  0.513913330458477     
  0.576928035434266     
  0.573827688302331     
  0.532213851564010     
  0.528766401018239     
  0.561971862672184     
  0.558751855553487     
  0.543711112313793     
  0.547045570472624     
 -2.776463444413052E-002
 -3.555211829456651E-002
 -0.335104697985909     
 -0.326700350920563     
 -0.296571865694489     
 -0.146103676143143     
 -0.138370092996059     
 -0.174811439535131     
 -0.183137439564805     
 -0.210922850370571     
 -0.202156100372598     
 -0.338044323381673     
 -0.342153353499011     
 -8.043237282591646E-002
 -8.809513555611767E-002
 -1.261480235555477E-002
 -2.060410078843000E-002
 -0.341327001323432     
 -0.309009105575570     
  0.740516636604515     
  0.741547840436980     
 -0.347109993165179     
 -0.341252249924278     
 -0.134514911465394     
 -0.126405777935915     
 -5.129336462658285E-003
 -0.281468670224722     
  2.951785938274199E-003
 -0.341899338966981     
  0.741277296697482     
 -0.280066126592594     
 -0.159821400916574     
 -0.168205371483858     
 -0.351448795028359     
 -6.527917528428832E-002
 -7.351890701245015E-002
  1.054208726401951E-002
  1.856646068764482E-002
 -0.310751472374610     
 -0.108748932635882     
 -0.117012043020345     
  0.738141279381519     
 -0.230644313662026     
 -0.239058455717864     
 -5.124642996582523E-002
 -5.989700231776015E-002
 -0.324099213769195     
 -0.184977466504807     
 -0.194266884403971     
  3.391270898368804E-002
  0.318941023980429     
  0.312891625189550     
  0.333300111279650     
  0.327219619900298     
  2.618659826174493E-002
  0.298665339036811     
  0.304614527720169     
  0.341882466197432     
  0.347930634174602     
  4.886314152127660E-002
  4.166195471774492E-002
 -0.224522495562922     
 -0.215105203328933     
 -0.252824075831040     
 -0.245619148759076     
  0.284239042530760     
  0.290030437255044     
  0.356797384378192     
  0.362767676415538     
  5.692716138572969E-002
  6.367926133774342E-002
  0.757536743831979     
  0.275249235297838     
  0.269578817127249     
  0.377689985175288     
  0.371813720881329     
 -0.348341220873128     
  0.756902446999800     
  0.721770366263113     
  0.725298278971417     
  7.203952579942929E-002
  7.866284688557681E-002
  0.260480767417829     
  0.254778877844796     
  0.392654173047439     
  0.386870528976272     
  0.705642946746615     
  0.709373133406861     
  0.239892136781320     
  0.245760109814600     
  0.401959117634922     
  0.407656192594609     
 -3.735048084344141E-002
 -4.641196407891274E-002
  9.381729035225395E-002
  8.708975890245545E-002
  0.693560856737674     
  0.689724367139858     
  0.230989400145170     
  0.224930036002892     
  0.417101653091840     
  0.422713934117887     
  0.109048053144411     
  0.102162554431035     
  0.678006504854869     
  0.674096390914997     
  0.216094883725612     
  0.209875069374448     
  0.124318876162381     
  0.117337454869440     
  0.437843881286957     
  0.432323963778344     
 -0.295400616970190     
  0.658692726571950     
  0.662676350678187     
  0.201049556113900     
  0.194687678003926     
  0.132679890363435     
  0.139632770741302     
 -0.142871237061508     
 -0.151852878130527     
  0.185829428733314     
  0.179325359750100     
  0.148196899931191     
  0.155016046308239     
  0.453012976658457     
  0.447604103012913     
  0.170450728831945     
  0.163794923804099     
  0.643390530846691     
  0.647456794975353     
  0.462780447057280     
  0.468052063661579     
  0.632242003066526     
  0.628085335320314     
 -0.353561737534653     
  0.477692735003132     
  0.482816995365718     
  0.616977345209793     
  0.612730488377955     
  0.497391525999983     
  0.492403292802479     
  0.597409785017437     
  0.601737417691875     
 -0.267155425960703     
 -0.261523626992990     
  0.511924222468844     
  0.507056148513594     
  0.582211116802071     
  0.586622746448820     
  0.521753077727625     
  0.526517635933938     
  0.571499541901276     
  0.566987947423161     
  0.536595052166071     
  0.541272706735693     
  0.556300608557870     
  0.551699070157001     
  0.755077237739572     
 -0.341994714118696     
 -0.355052239017787     
 -0.294370709730653     
 -3.186879471909370E-002
 -2.239818458191191E-002
 -0.100194760313425     
 -9.143122783597052E-002
 -0.325510964741999     
 -0.358936131355170     
 -0.340299533056441     
 -0.164646088386023     
 -0.174255649179386     
 -0.208016923593596     
 -0.197847887854357     
 -0.353326972200745     
 -1.603904432980865E-002
 -6.328480359214896E-003
  0.756999011743300     
  0.752095362700461     
 -0.309794860782654     
 -0.364218466061586     
 -8.465508565585979E-002
 -7.543466606355959E-002
 -0.356079568428780     
  2.027616689955119E-004
 -0.277932930369430     
 -0.130554050183694     
 -0.121146853552274     
  9.988949935994780E-003
 -0.357704143395624     
 -0.358132033581772     
 -0.281481059114494     
  0.739644670098260     
 -0.369080429808432     
 -6.984608583510639E-002
 -6.003774267048613E-002
 -0.239836936573314     
 -0.229878884761141     
  2.612706314885594E-002
  1.647845608524281E-002
 -0.308648463125438     
 -0.341254783624673     
  0.734352294337703     
 -0.357831451311594     
  0.327122573116082     
  0.319920621972550     
  0.313468454411197     
  0.306410919496126     
  4.136361381512431E-002
  0.770333232070510     
  3.251928662426222E-002
  0.341411450312992     
  0.334155660710343     
  0.292574480395376     
  0.299343495895190     
  0.349102250883890     
  0.356296508348644     
  0.774611268795552     
  5.578171668877857E-002
  4.813809770135156E-002
 -4.679040136473537E-002
 -5.687605293454856E-002
  0.278100495755033     
  0.284442075434689     
  0.364199941824983     
  0.371296717995802     
  0.772827682830813     
 -0.324970106692176     
  6.340514335933638E-002
  7.055829502727051E-002
 -0.363785344823725     
  0.269516214639238     
  0.263371973216547     
  0.386340369337655     
  0.379335341714952     
  0.716978464481316     
  0.722461815668721     
  0.254883821534038     
  0.248522808107447     
  8.588466041313103E-002
  7.851071814801949E-002
  0.401412718156531     
  0.394480405994886     
 -0.179335784205816     
 -0.190018259589270     
  0.700088817820151     
  0.705623309717336     
  0.233585184164513     
  0.240288254190787     
 -0.102738613863920     
 -0.112483804141225     
  9.359328832314912E-002
  0.101324207220491     
  0.774267748236231     
  0.409667767688944     
  0.416541959638398     
  0.689388917484858     
  0.683856941107585     
 -0.242852421628148     
 -0.251572654962636     
  0.225478001248889     
  0.218545128818637     
  0.108772764290885     
  0.116810122533869     
  0.424973094699095     
  0.431788987324733     
  0.210447534856101     
  0.203351643937248     
  0.668155140686338     
  0.673695760105509     
  0.132319141767022     
  0.124182793665621     
  0.195174105325852     
  0.187908100067326     
  0.139950701048318     
  0.147907265172022     
  0.172109768304563     
  0.179559626676545     
  0.447211726197906     
  0.440472258252516     
  0.156024009849682     
  0.163692649389791     
  0.652703605731686     
  0.658277552812683     
 -0.373316182036847     
 -0.223285356434545     
 -0.212288532141652     
  0.462761946839406     
  0.456140035526979     
  0.642918857693515     
  0.637289792640062     
  0.477755604451032     
  0.471318603938212     
  0.627444956001020     
  0.621749039626217     
 -0.370026283373580     
  0.492170796591666     
  0.485887399960406     
 -0.358513755092762     
  0.606013099566823     
  0.611765993198554     
 -4.475369919541784E-002
 -3.384517983699088E-002
  0.506494789576266     
  0.500336525609369     
  0.590577295378335     
  0.596341128443669     
  0.520839654215097     
  0.514778705147953     
  0.581351372388189     
  0.575518707275494     
  0.529361979957886     
  0.535353194941699     
  0.565812972794020     
  0.559868440199907     
  0.544228857451169     
  0.550184468855693     
 -0.295586329626851     
 -0.149264779195620     
 -0.159627958710666     
  0.766950853559121     
 -0.266216420597676     
 -0.258550820067571     
 -9.578065135796580E-002
 -8.555540702753733E-002
 -0.292065351435261     
 -2.809362214856993E-002
 -1.666171298156409E-002
 -0.358327582106470     
  0.755388722471468     
 -0.132793469870339     
 -0.143297661376000     
 -0.376171064421943     
 -0.323410441218161     
 -0.341523888766988     
 -0.369473372428624     
  0.773951380649014     
 -0.376796658178325     
 -1.099111759463426E-002
  5.827490864099040E-004
 -8.067343814139755E-002
 -0.372363202710914     
 -7.002197361503311E-002
  0.748072513679002     
 -0.161473058912807     
 -0.172580814399793     
 -0.193220088783026     
 -0.204904237290182     
 -0.382212809990764     
 -0.309437750691126     
 -0.372088767268005     
 -0.281701157038532     
 -0.275951790043345     
 -0.374916436325447     
 -0.228823234484711     
 -0.240622391567827     
  6.107975410069632E-003
  1.785359843436040E-002
  0.786168207241296     
 -0.124212676803739     
 -0.113409594135736     
 -0.376444503390456     
  0.736806099721369     
 -0.387909868306995     
 -0.359723357800070     
  3.489750399968348E-002
  2.307459984100699E-002
  0.321360197042044     
  0.313172206211836     
  0.334164387435890     
  0.325655640787368     
 -6.367306869612199E-002
  0.309344203912206     
  0.301240870905792     
  4.842315379079811E-002
  0.792713358938141     
 -0.305553633428895     
 -0.339415914709233     
 -5.162045419322796E-002
  0.729342297058631     
  3.935596133313115E-002
  0.349558439610286     
  0.341117905832105     
  0.294079765180041     
  0.286807206908546     
  0.789290942269476     
  6.162969781011091E-002
  0.356407914541275     
  0.364713163365890     
  5.475987622334457E-002
  0.272065256028028     
  0.278355417207538     
  0.379869595148902     
  0.371678918950665     
  7.754223002877396E-002
  6.987923928474303E-002
  0.263610407952513     
  0.257233648634008     
 -0.380117869500354     
 -0.392929731353569     
  0.395017389117495     
  0.386896154808816     
  0.710898872927074     
  0.718336546325572     
  0.249572322857426     
  0.242331565380448     
  0.792650639363604     
  9.323771982190397E-002
  8.490456466652399E-002
  0.410168521451641     
  0.402076774230411     
  0.227348522737203     
  0.234968132010160     
  0.791512073627643     
  0.693596243629305     
  0.700876338064189     
  9.999093417048546E-002
  0.108987755746906     
 -0.107255395222649     
  0.219995858484408     
  0.212235657001044     
 -9.625170791061310E-002
  0.417338583359680     
  0.425420407331558     
  0.115266103823460     
  0.124708758060595     
  0.677593091089384     
  0.684779306314747     
  0.204800909838005     
  0.196902752864631     
 -0.144572734214393     
 -0.156110662153129     
  0.140391484479360     
  0.131012537234757     
  0.189254971318400     
  0.181098305013912     
  0.156254880446542     
  0.147557383033171     
  0.432859114953730     
  0.440919340818516     
  0.172841824814868     
  0.164511813708179     
 -0.324395362698664     
  0.662056032283377     
  0.669210195530216     
  0.772531318555257     
  0.456870529424907     
  0.448860942656023     
  0.646666625721130     
  0.653831984274570     
  0.473605691101488     
  0.465735376974388     
  0.638349712161376     
  0.631140555960125     
  0.487072836113324     
  0.479610412418643     
 -0.208842844342271     
 -0.221586792717979     
  0.622475267596734     
  0.615205808177262     
 -0.249534469994902     
 -0.259719399691186     
  0.493898697596974     
  0.501446895438649     
  0.598357547413902     
  0.605653814860520     
  0.515155149717184     
  0.507929872666233     
  0.583891764565820     
  0.590927762092007     
  0.529556775193820     
  0.522167270252345     
  0.569506297128342     
  0.576900856711337     
  0.536579017566187     
  0.543716622236857     
  0.551196913662607     
  0.558625945706357     
 -0.173857515558986     
 -0.185941581769105     
 -0.387156979676038     
 -4.186297319981478E-002
 -2.843515922162108E-002
  0.782505778205200     
 -0.295437812569932     
 -0.376877532441829     
  0.762920466457882     
 -8.957962589861337E-002
 -7.758798276960387E-002
 -0.379500140584734     
  0.791923860940364     
 -0.357053682471432     
 -0.319809589708729     
 -0.289772690334402     
 -2.333014807222738E-002
 -0.394073114217560     
 -9.740360312953559E-003
  0.752837769887406     
 -0.125552744995148     
 -0.137427533186269     
 -0.388530428420180     
 -0.385213569989257     
 -0.341653852475701     
 -0.397204512008781     
 -0.390279028826858     
  8.185810879759257E-003
 -5.085094002668291E-003
 -0.401454648680405     
  0.743121260904599     
  0.802241483470137     
 -0.393681478401976     
 -0.227504975736825     
 -0.241464184963671     
 -0.306171613930541     
 -0.157178809311211     
 -0.169429524069843     
 -0.187140593505085     
 -0.200383237262989     
 -0.395857335123327     
 -0.114317882839784     
 -0.102052626339390     
 -0.284066418682285     
 -0.275755993370504     
  1.268239633857969E-002
 -0.400783159737924     
  2.713890034767702E-002
  0.790795656877310     
 -0.408132405535097     
  0.732557093827388     
  0.811596068129894     
  4.827898811670815E-002
  3.103357664045722E-002
  0.806098095760503     
  0.322611786877772     
  0.312621871100964     
  0.342804670354592     
  0.332911886044555     
  0.305094360068523     
  0.295861569348413     
 -0.360767759739998     
  4.636162616662794E-002
  0.357836223687985     
  0.348418513100648     
  0.722917310227975     
  0.287794013195844     
  0.281024180757648     
 -0.376262947978417     
 -0.336327761812733     
  6.119490973861750E-002
  0.363856767160871     
  0.373293966662138     
  0.265895549164332     
  0.270588135606048     
  6.899795713283412E-002
  0.812001335245899     
  8.475192996898225E-002
  7.630222706888153E-002
  0.258647624798003     
  0.251269432362130     
 -0.299422828672857     
  0.388427865833117     
  0.379290944163255     
  0.809232664905347     
  0.244934836456977     
  0.236091823143426     
  9.098019733483229E-002
  0.100746357382994     
  0.403760015323518     
  0.394420456870886     
  0.702690427490651     
  0.712031913733513     
 -0.413920956605039     
  0.221363261069649     
  0.229433421770026     
  0.811244522112811     
  0.778733111771482     
 -5.411341825597082E-002
  0.106286540687236     
  0.116914869369732     
  0.409559718204888     
  0.418739881867100     
  0.686608751055447     
  0.695379185652104     
  0.214732967031790     
  0.205955257384039     
  0.132650658752893     
  0.121238541595298     
 -0.398638763827451     
 -0.244868198797991     
 -0.257584939177522     
  0.199075556907758     
  0.190903669072434     
 -3.883491067847852E-002
  0.148337605573768     
  0.137797853997666     
  0.174266326371498     
  0.183941430285059     
  0.424797247049783     
  0.434253461764942     
  0.164197509165716     
  0.155998123374329     
  0.671390895409212     
  0.680355157456929     
  0.440616523352574     
  0.449871747625641     
  0.655884596645557     
  0.664503865256153     
  0.466765294511995     
  0.457249260092759     
  0.640941813953870     
  0.649871529773870     
 -7.199510690510560E-002
  0.490333203791491     
  0.481142988808563     
  0.633656969750271     
  0.624971849227781     
  0.608956537218795     
  0.618047374412612     
  0.517398639436865     
  0.508398406107969     
  0.585433827966098     
  0.594401698078211     
 -5.761981081878193E-002
 -0.141198524268517     
 -0.154241240116656     
  0.535866228861914     
  0.544836539387553     
  0.561040602019438     
  0.570283318057579     
  0.798410667479890     
  0.770744840146878     
 -0.322343239489757     
  0.810402866860499     
 -0.419026051153198     
 -0.396865110902626     
 -0.403458251501610     
 -3.749301085636773E-002
 -2.008331137130909E-002
 -0.164792907631596     