 TITLE="euler solver on unstructured grid" 
 VARIABLES= "X" "Y"  "P" "Rou" "U"  "V"  "nuT"
 ZONE NODES=        5306  ELEMENTS=       10382  ZONETYPE=FETRIANGLE
 DATAPACKING=BLOCK
 VARLOCATION=([3-7]=CELLCENTERED)
 -0.272884811176654     
 -0.264443336699690     
 -0.256273739224098     
 -0.248149483628756     
 -0.240049075364411     
 -0.231964148984866     
 -0.223890405580270     
 -0.215825289042064     
 -0.205082127266333     
 -0.194349753802575     
 -0.183624397646699     
 -0.172905838415857     
 -0.162194117147396     
 -0.151486537564686     
 -0.140783547358710     
 -0.130085652313822     
 -0.119390504713654     
 -0.108698784622691     
 -9.801120115210780E-002
 -8.732555181897478E-002
 -7.664263287453074E-002
 -6.596324057001439E-002
 -5.528525956256107E-002
 -4.041663562562334E-002
 -2.555204917834275E-002
 -1.069118070714927E-002
  4.167230786206617E-003
  1.902138947243035E-002
  3.387255634977147E-002
  4.872087665167088E-002
  6.356652465825767E-002
  7.840967464966089E-002
  9.325044281263327E-002
  0.108090003005360     
  0.122926443211793     
  0.137760879196742     
  0.152593427146960     
  0.167424145155822     
  0.182253178456769     
  0.197080585143178     
  0.211907451933170     
  0.226731808717320     
  0.241554771260438     
  0.256376397655899     
  0.271196716950392     
  0.286015787237294     
  0.300833695656668     
  0.315651441786571     
  0.330467084564267     
  0.345281681661188     
  0.360095233077335     
  0.374907796906084     
  0.389719402194123     
  0.404530048941452     
  0.419340765772815     
  0.434149582578789     
  0.448957498937429     
  0.463764543895424     
  0.478570746499461     
  0.493376077702853     
  0.508180537505599     
  0.522985154532445     
  0.537787929627277     
  0.552589833321463     
  0.567390894661692     
  0.582191055554588     
  0.596990374093527     
  0.611788763138444     
  0.626587251314083     
  0.641383839464332     
  0.656179440027184     
  0.670974082049325     
  0.685767736484068     
  0.700560345238037     
  0.715351908311231     
  0.726693244757815     
  0.715186226001848     
  0.700276326721006     
  0.685367473120938     
  0.670459665201644     
  0.655552844869749     
  0.640646983078563     
  0.625742108874776     
  0.610837135540267     
  0.595934062231146     
  0.581031918416048     
  0.566130616954907     
  0.551230215941100     
  0.536330657281249     
  0.521431970022045     
  0.506533125538741     
  0.491636122987451     
  0.476739991836806     
  0.461844732086807     
  0.446950314690764     
  0.432056768695368     
  0.417164123147304     
  0.402271378468519     
  0.387380562861811     
  0.372490705795813     
  0.357601807270525     
  0.342713896332636     
  0.327827031075520     
  0.312941211499180     
  0.298055496118934     
  0.283171942184271     
  0.268289550117136     
  0.253408407057592     
  0.238528571099017     
  0.223650071288098     
  0.208772965718211     
  0.193896370998054     
  0.179022315330427     
  0.164149886277337     
  0.149279141932162     
  0.134410227528343     
  0.119543201159255     
  0.104678179011652     
  8.981427769422946E-002
  7.495358350316511E-002
  6.009527114053154E-002
  4.523945679308150E-002
  3.038631474094410E-002
  1.553601926424840E-002
  6.887155964353127E-004
 -1.415633442035744E-002
 -2.899692830320077E-002
 -4.383380420995694E-002
 -5.866664262705602E-002
 -6.931365986490869E-002
 -7.995726664958638E-002
 -9.059934595044830E-002
 -0.101238694862621     
 -0.111874110481232     
 -0.122507388635575     
 -0.133137239280713     
 -0.143762343325020     
 -0.154384351364349     
 -0.165001770026945     
 -0.175613047847678     
 -0.186219486862142     
 -0.196819128951572     
 -0.207409754577008     
 -0.217991591046583     
 -0.225919723403328     
 -0.233839228893684     
 -0.241747551409091     
 -0.249640392039697     
 -0.257509385339306     
 -0.265333036758666     
  -9.97819848871406     
  -8.97862043277959     
  -7.97904237684512     
  -6.97946432091065     
  -5.97988626497618     
  -4.98030820904171     
  -3.98073015310724     
  -2.98115209717278     
  -1.98157404123831     
 -0.981995985303839     
  1.758207063062978E-002
   1.01716012656510     
   2.01673818249957     
   3.01631623843404     
   4.01589429436850     
   5.01547235030297     
   6.01505040623744     
   7.01462846217191     
   8.01420651810638     
   9.01378457404085     
   10.0133626299753     
   9.98431594179459     
   9.95526925361386     
   9.92622256543313     
   9.89717587725240     
   9.86812918907167     
   9.83908250089095     
   9.81003581271022     
   9.78098912452949     
   9.75194243634876     
   9.72289574816803     
   9.69384905998730     
   9.66480237180657     
   9.63575568362585     
   9.60670899544512     
   9.57766230726439     
   9.54861561908366     
   9.51956893090293     
   9.49052224272221     
   9.46147555454148     
   9.43242886636075     
   8.43285081042628     
   7.43327275449181     
   6.43369469855734     
   5.43411664262287     
   4.43453858668841     
   3.43496053075394     
   2.43538247481947     
   1.43580441888500     
  0.436226362950531     
 -0.563351692983937     
  -1.56292974891841     
  -2.56250780485287     
  -3.56208586078734     
  -4.56166391672181     
  -5.56124197265628     
  -6.56082002859075     
  -7.56039808452522     
  -8.55997614045969     
  -9.55955419639415     
  -10.5591322523286     
  -10.5300855641479     
  -10.5010388759672     
  -10.4719921877864     
  -10.4429454996057     
  -10.4138988114250     
  -10.3848521232443     
  -10.3558054350635     
  -10.3267587468828     
  -10.2977120587021     
  -10.2686653705213     
  -10.2396186823406     
  -10.2105719941599     
  -10.1815253059792     
  -10.1524786177984     
  -10.1234319296177     
  -10.0943852414370     
  -10.0653385532562     
  -10.0362918650755     
  -10.0072451768948     
 -0.220198197393419     
 -0.222907763781167     
 -0.210976308554259     
 -0.213785747602745     
 -0.231539604289218     
 -0.228897285583323     
 -0.216475119870570     
 -0.219795833151763     
 -0.203859152637694     
 -0.200928983154709     
 -0.240430300594367     
 -0.237865810380555     
 -0.225082711883522     
 -0.228391342430491     
 -0.207310479821550     
 -0.210729213621701     
 -0.247189380613963     
 -0.249570022304013     
 -0.193591465604622     
 -0.190546001822353     
 -0.234335624623364     
 -0.237724474935781     
 -0.276278326033937     
 -0.274720788862185     
 -0.258595943308272     
 -0.256638976413368     
 -0.213898161637316     
 -0.217818996848675     
 -0.197276839709686     
 -0.200800805110479     
 -0.221309165257646     
 -0.225100998875060     
 -0.282812373816851     
 -0.281956109731975     
 -0.183285285667044     
 -0.180134369090228     
 -0.265816192831903     
 -0.267235261731330     
 -0.284352085441979     
 -0.281397932308647     
 -0.248132738987473     
 -0.244708007709650     
 -0.289336502575441     
 -0.204239694456256     
 -0.208277298917692     
 -0.275960314283562     
 -0.272873503820547     
 -0.173103769579416     
 -0.169845076959782     
 -0.291970056503450     
 -0.186935916766724     
 -0.190549618733143     
 -0.229196916631916     
 -0.233235082301993     
 -0.290488290851230     
 -0.221804804597028     
 -0.226217887518082     
 -0.162891873544965     
 -0.159512545252807     
 -0.258840163367394     
 -0.255669493205788     
 -0.290306079238248     
 -0.212148795905219     
 -0.216739154908224     
 -0.293709804426089     
 -0.193643609437759     
 -0.197765703873315     
 -0.152365470467272     
 -0.148865118238608     
 -0.176931028182769     
 -0.180623146432858     
 -0.285263616517704     
 -0.268740021920115     
 -0.266676190762525     
 -0.240170299880392     
 -0.244568634011013     
 -0.299336910248359     
 -0.277926194332454     
 -0.141512266113979     
 -0.137908784093785     
 -0.300439155253842     
 -0.302114563478468     
 -0.277220770986638     
 -0.201071747784813     
 -0.205762499562807     
 -0.167381996393527     
 -0.171200331447368     
 -0.126821801191235     
 -0.130505859397216     
 -0.221788750799609     
 -0.227003328567493     
 -0.183041800769541     
 -0.187205867574843     
 -0.294319044102737     
 -0.232358564343988     
 -0.237345373237431     
 -0.119498906032815     
 -0.115756782048740     
 -0.252915537569564     
 -0.257605230661228     
 -0.161293437940709     
 -0.157299089062237     
 -0.301261645239626     
 -0.290150416195019     
 -0.304065048902208     
 -0.108587759753703     
 -0.104803074203484     
 -0.209970088722450     
 -0.215294711927448     
 -0.193959294780833     
 -0.189225925107816     
 -0.150351694957075     
 -0.146205806166349     
 -0.304453845808056     
 -0.174219396120307     
 -0.178376339918047     
 -9.771874791166590E-002
 -9.390216569444602E-002
 -0.285883326729670     
 -0.310997726827522     
 -0.265778927371957     
 -0.270326948600679     
 -0.309780650370713     
 -0.310034642470793     
 -0.302657288553511     
 -0.138960695551650     
 -0.134705793329189     
 -0.278108433816941     
 -8.706211932261242E-002
 -8.323348745077033E-002
 -0.313610387003817     
 -0.315953711799737     
 -0.170904173764333     
 -0.166470408308692     
 -7.667220849968133E-002
 -7.281289276685715E-002
 -0.202487763046760     
 -0.197102677398435     
 -0.313761384816136     
 -0.127434565646649     
 -0.123107693708746     
 -0.280135124499544     
 -0.247370316433310     
 -0.253296973622208     
 -0.220633294248416     
 -0.226678011737918     
 -0.177246224484965     
 -0.181932874586562     
 -0.292353098756794     
 -6.560569061180974E-002
 -6.169625500824984E-002
 -0.233668783841481     
 -0.239675612017642     
 -0.111752771864449     
 -0.116106077697507     
 -0.160046879515087     
 -0.155358580823660     
 -0.290449737457493     
 -4.884777120698023E-002
 -5.278598835497314E-002
 -0.316386007038509     
 -0.316805525497378     
 -0.105117949198752     
 -0.100739534628685     
 -0.322636899455384     
 -0.206945221239612     
 -0.213037267898926     
 -0.147942004319654     
 -0.143114674862143     
 -3.464041109081132E-002
 -3.859428990072328E-002
 -0.302990937179299     
 -0.188562573554951     
 -0.183176496776826     
 -0.323506988133179     
 -0.263646659186673     
 -0.270377601792526     
 -9.373992974892981E-002
 -8.935172676922010E-002
 -0.303700272897505     
 -1.990846095844917E-002
 -2.387723836897393E-002
 -0.326842259805771     
 -0.131112280089399     
 -0.136040636401824     
 -8.372316486872367E-002
 -7.942424321666811E-002
 -0.328462378163077     
 -0.277496725559065     
 -0.329660961780207     
 -0.167299944601338     
 -0.172564959540249     
 -0.286151470996033     
 -4.859068880201252E-003
 -8.854250921520175E-003
 -7.441418829787873E-002
 -6.998515700775668E-002
 -0.118551511869357     
 -0.123530006264005     
 -0.192124845236059     
 -0.198262410284659     
  1.035651022243611E-002
  6.306580294804708E-003
 -0.316640466108048     
 -0.239643349527099     
 -0.232763718122459     
 -0.218503655544305     
 -0.225346149240714     
 -6.183168981580294E-002
 -5.736249261431381E-002
 -0.246922638146470     
 -0.254007550977558     
 -0.318003501460053     
  2.144430034762714E-002
  2.560686189487033E-002
  0.324277076076261     
  0.320714912131364     
 -0.112513279963017     
 -0.107630435180575     
  0.338918237460725     
  0.335452210419867     
  0.309733762033907     
  0.306030489040770     
  4.080505543868400E-002
  3.645500140230715E-002
  0.726690323664352     
  0.726353129471822     
 -0.157228880846559     
 -0.151767342718930     
 -0.290370332049307     
 -4.824037314237296E-002
 -4.377645622848965E-002
  0.353685350662492     
  0.350290995434273     
  0.295183520554340     
  0.291295810328195     
 -0.331467273134952     
  5.591063043599734E-002
  5.135335550684653E-002
  0.365205907393750     
  0.368533228488994     
 -0.330843343369039     
  0.280548766497305     
  0.276470751638822     
  0.380162529368353     
  0.383416648147674     
  6.624669908935647E-002
  7.092882290849659E-002
  0.712011985780382     
  0.711452229931046     
  0.265827039422324     
  0.261605661223489     
  0.395146460611667     
  0.398318311449373     
  0.696835273707169     
  0.696069575718955     
  0.251044222271160     
  0.246746093885517     
  8.589413586167906E-002
  8.120830969791555E-002
  0.410158053973674     
  0.413239776867625     
  0.236215570827375     
  0.231880819360100     
  0.681658271661686     
  0.680703559873274     
  0.100849025034911     
  9.623456846740432E-002
  0.425201808062163     
  0.428187922357401     
  0.221341092605910     
  0.216974941446940     
  0.666571596770742     
  0.665442864492916     
  0.115832721561753     
  0.111300641092937     
  0.206407943628279     
  0.202004424811067     
  0.440269668479857     
  0.443155808645139     
  0.130876707726686     
  0.126396229201861     
  0.651555502241047     
  0.650265129378056     
  0.191398954575261     
  0.186958478433757     
  0.145991979952835     
  0.141523661562921     
  0.176306848725175     
  0.171840768430478     
  0.455317623360549     
  0.458100023476912     
  0.161153683654071     
  0.156680893558378     
  0.636564654530646     
  0.635122575762131     
  0.470281713404921     
  0.472958615372083     
  0.621566064152487     
  0.619981317949045     
 -0.102098334670605     
 -9.708611363554932E-002
 -0.337521712958520     
  0.487716962912521     
  0.485143615819685     
 -0.269389265662175     
 -0.261702331672015     
  0.606563734907586     
  0.604845318009939     
  0.499945769660160     
  0.502419281746353     
  0.589742818221622     
  0.591586545195223     
  0.514746067417260     
  0.517122248455885     
  0.574664794399416     
  0.576628173371786     
  0.529595868083453     
  0.531875696203937     
  0.559584418705668     
  0.561660917986837     
  0.546722142285894     
  0.544540854908582     
 -3.389237286113184E-002
 -2.943970152633206E-002
 -0.335848436829721     
 -0.331467131665944     
 -0.301310072579914     
 -0.139570761845865     
 -0.145042990171917     
 -0.182135674933053     
 -0.175993407632660     
 -0.203203197946380     
 -0.210098791107359     
 -0.333418802897675     
 -0.340793510685120     
 -8.678553872125358E-002
 -8.183007028823489E-002
 -1.883294054221573E-002
 -1.437194250293725E-002
 -0.343016332771347     
 -0.304090453513734     
  0.741537308644938     
  0.741409396644720     
 -0.344566301500018     
 -0.344160801930607     
 -0.127682252951318     
 -0.133369242632242     
  1.188645661145539E-003
 -0.276425225997824     
 -3.319419509033156E-003
 -0.345977792433410     
  0.739960373657993     
 -0.285371565430575     
 -0.167129744935375     
 -0.161060141823085     
 -0.347681056392261     
 -7.195084717352629E-002
 -6.692112259076533E-002
  1.691111207813129E-002
  1.227934303110718E-002
 -0.316141594479063     
 -0.115767719361520     
 -0.110110027574737     
  0.740371726877788     
 -0.238798401434057     
 -0.231189238224348     
 -5.809069153443419E-002
 -5.310845396842977E-002
 -0.318694953699175     
 -0.193210732648244     
 -0.186230920327576     
  2.763873240881500E-002
  0.313792198820263     
  0.318297694529678     
  0.328224195507057     
  0.332576763260902     
  3.257680060945532E-002
  0.304148101228388     
  0.299364043261104     
  0.347197179959868     
  0.342917991888636     
  4.260493849230856E-002
  4.805247541886637E-002
 -0.216122493091768     
 -0.223759394054481     
 -0.245477210997357     
 -0.253279420682040     
  0.289817650528628     
  0.284665029037644     
  0.362056611142189     
  0.357827695135830     
  6.330866811901210E-002
  5.741789411514615E-002
  0.756758312545180     
  0.269781125869950     
  0.275255082402415     
  0.372833787985052     
  0.377003466278408     
 -0.348928609887346     
  0.757414705306394     
  0.724315195242492     
  0.723582801748639     
  7.841089573878124E-002
  7.239296120340233E-002
  0.254923406696748     
  0.260549756967248     
  0.387890033407789     
  0.391981334765245     
  0.708413863290350     
  0.707372835972741     
  0.245754511236921     
  0.240115290153017     
  0.406985744592030     
  0.402989595178946     
 -4.435469065260207E-002
 -3.943865146141614E-002
  8.755145651995060E-002
  9.345296821374510E-002
  0.691346658576486     
  0.692665146416258     
  0.225254219075118     
  0.230881887424909     
  0.422039910220087     
  0.418150023501342     
  0.102800525393278     
  0.108520009435443     
  0.675615110546019     
  0.677179347791630     
  0.210268466450146     
  0.215915252883195     
  0.118100834891862     
  0.123690055883744     
  0.433390347746750     
  0.437167219243238     
 -0.289828415348921     
  0.661907975870340     
  0.660123419364792     
  0.195133091327553     
  0.200814682076381     
  0.139024024977185     
  0.133452162927252     
 -0.150655542306651     
 -0.144216484212790     
  0.179827321751948     
  0.185534340205307     
  0.154519418059491     
  0.148880944834826     
  0.448682542930548     
  0.452340418274010     
  0.164374082493416     
  0.170072394475387     
  0.646735147687466     
  0.644748975361438     
  0.467393358357326     
  0.463861440945764     
  0.629384252663282     
  0.631556787341241     
 -0.353069660201084     
  0.482178046597892     
  0.478770109390993     
  0.613978108370976     
  0.616321984408697     
  0.493476913615677     
  0.496772080478847     
  0.601108202508855     
  0.598611152314971     
 -0.260351742924809     
 -0.268667755162429     
  0.508129308997071     
  0.511320812986877     
  0.586012552159581     
  0.583374636347566     
  0.525924772813713     
  0.522831344416402     
  0.568124243910625     
  0.570898681218649     
  0.540683016118547     
  0.537686153918776     
  0.552811432187056     
  0.555706338944363     
  0.756884647550619     
 -0.347326983295049     
 -0.349997763459537     
 -0.300344537331965     
 -2.469394819443194E-002
 -2.956892136087056E-002
 -9.298693758885290E-002
 -9.874389560615096E-002
 -0.331533498534640     
 -0.357299230197539     
 -0.334393627086414     
 -0.173058503684909     
 -0.166014444438605     
 -0.199159342428802     
 -0.206926389675069     
 -0.355662924723232     
 -8.717366981316942E-003
 -1.360370232619429E-002
  0.754902418589977     
  0.755227284943459     
 -0.303695288441492     
 -0.361374910021497     
 -7.724287979087849E-002
 -8.293888000605176E-002
 -0.359399693138099     
  7.614470616334770E-003
 -0.284492747704517     
 -0.122611313885728     
 -0.129220934825484     
  2.668095798669548E-003
 -0.362262815389786     
 -0.359552642174073     
 -0.275285322629817     
  0.737078140806678     
 -0.364960465461703     
 -6.219937741898548E-002
 -6.776087409688507E-002
 -0.230840507587397     
 -0.239174110425144     
  1.881774665658124E-002
  2.393167584585634E-002
 -0.315285349199402     
 -0.347918132327524     
  0.737852500891853     
 -0.351414582773733     
  0.321056459195489     
  0.326243237615923     
  0.307323009942031     
  0.312779263150177     
  3.411317990092051E-002
  0.773007121007226     
  3.997397470755656E-002
  0.335365773788015     
  0.340485820707448     
  0.299061962913834     
  0.293041699569830     
  0.355407359997022     
  0.350297558291783     
  0.773099414032216     
  4.853650160028482E-002
  5.557494881661502E-002
 -5.453759146177831E-002
 -4.918313321663709E-002
  0.284707007399194     
  0.278004100668385     
  0.370450942317943     
  0.365366935377847     
  0.774107296257087     
 -0.318307706924097     
  7.082649039801799E-002
  6.326118329335503E-002
 -0.364165597249370     
  0.262987956074250     
  0.270090066496710     
  0.380495187591651     
  0.385513588617311     
  0.720751695360015     
  0.719543162523902     
  0.248274664208582     
  0.255347102276151     
  7.856366860245788E-002
  8.592411497647545E-002
  0.395659210259631     
  0.400578851164519     
 -0.188744890207480     
 -0.180799610689345     
  0.704049421294188     
  0.702456035282164     
  0.240513334875666     
  0.233581891746430     
 -0.110976103818898     
 -0.104366121749757     
  0.101006878889449     
  9.400493911367483E-002
  0.774156516286569     
  0.415684681736907     
  0.410883628415964     
  0.686035245827109     
  0.687955952386246     
 -0.251520350399587     
 -0.243234363174930     
  0.218669222769009     
  0.225577294917650     
  0.116194044110216     
  0.109511681409827     
  0.430905034266726     
  0.426231311737178     
  0.203534731378021     
  0.210489723857171     
  0.672381066940173     
  0.670176537482802     
  0.125051299622083     
  0.131616504651113     
  0.188156958410628     
  0.195153634775183     
  0.147392792637897     
  0.140674665502514     
  0.179457695432355     
  0.172443303741663     
  0.441766674491086     
  0.446308989934131     
  0.163444080816325     
  0.156503943160528     
  0.657057429955734     
  0.654597818922004     
 -0.367837661441770     
 -0.213670852233984     
 -0.222156019778208     
  0.457455783474063     
  0.461856348799552     
  0.639079713565165     
  0.641774312072208     
  0.472632783802757     
  0.476869724733298     
  0.623450080881328     
  0.626363100751941     
 -0.369323950659963     
  0.487200253091127     
  0.491303318706535     
 -0.364407919528719     
  0.610742009318511     
  0.607631757900540     
 -3.668111983720622E-002
 -4.194091706053807E-002
  0.501652109774277     
  0.505641145970982     
  0.595377924120424     
  0.592112568093255     
  0.516105090500895     
  0.519991717184918     
  0.576997939516075     
  0.580423932929302     
  0.534500653815063     
  0.530709712727146     
  0.561309111241217     
  0.564904358447774     
  0.549311993674219     
  0.545614107098505     
 -0.288862292636677     
 -0.158302198673807     
 -0.150745921568427     
  0.771035023526499     
 -0.258189927522080     
 -0.266955451069220     
 -8.745856721988700E-002
 -9.398811077551414E-002
 -0.299261897658334     
 -1.978080782191203E-002
 -2.493890702732163E-002
 -0.365644097547218     
  0.751927004279795     
 -0.141908080509547     
 -0.134325331352480     
 -0.374301669911895     
 -0.330743476648781     
 -0.334264220348768     
 -0.371814453671122     
  0.771016968795147     
 -0.369872098520637     
 -2.533216263992776E-003
 -7.785199244983842E-003
 -7.227588077666559E-002
 -0.376058553949961     
 -7.851725110377399E-002
  0.752570541283478     
 -0.171207402889809     
 -0.163013500080251     
 -0.203539325078227     
 -0.194795974973030     
 -0.379101649388930     
 -0.302135394436440     
 -0.373281787641658     
 -0.274307773342180     
 -0.283771480670660     
 -0.379941893306764     
 -0.239415083425693     
 -0.230330117362491     
  1.463713018181629E-002
  9.463507416527182E-003
  0.789773923040761     
 -0.115064654545207     
 -0.122689188855621     
 -0.382903149161205     
  0.732925201211628     
 -0.383458913196279     
 -0.351858152096274     
  2.658732160236080E-002
  3.161898099082115E-002
  0.314457655867256     
  0.320302071043299     
  0.327114617200206     
  0.332967930180809     
 -5.471635832304379E-002
  0.302170294129117     
  0.308589981938589     
  4.033975725541535E-002
  0.790396771041347     
 -0.313443074426312     
 -0.347484385205771     
 -6.066105781504173E-002
  0.734165936737769     
  4.784962458483071E-002
  0.342515839249978     
  0.348455525802486     
  0.286671888900777     
  0.294314311448481     
  0.791430269884157     
  5.333079379950719E-002
  0.363715196443791     
  0.357717406966374     
  6.322053821613435E-002
  0.279704453968733     
  0.270828990565974     
  0.372953116963287     
  0.378915834721331     
  6.917782770956353E-002
  7.832519631949396E-002
  0.256069646375632     
  0.264993466499128     
 -0.380399922099429     
 -0.387038944102505     
  0.388191247510964     
  0.394050707232974     
  0.715937647851783     
  0.714163665746341     
  0.241924177030919     
  0.250207640930324     
  0.791827675211264     
  8.485019807126282E-002
  9.335135727995399E-002
  0.403431296070017     
  0.409153930136975     
  0.235341884986146     
  0.227204576802307     
  0.792175133738567     
  0.698735749006147     
  0.696541000249687     
  0.108452283434028     
  0.100614500104491     
 -9.811792278084391E-002
  0.212115216607849     
  0.220350028208036     
 -0.105513336040351     
  0.424343008537074     
  0.418771227605803     
  0.123756856262227     
  0.116366249112898     
  0.682835235501567     
  0.680293494981627     
  0.196800327033002     
  0.205146875555910     
 -0.154671038314401     
 -0.146162766993778     
  0.132079213986197     
  0.139545281102962     
  0.181126173485315     
  0.189482035445433     
  0.147966967031676     
  0.156137357242697     
  0.439788476175834     
  0.434363617465064     
  0.164582171762926     
  0.173041779150054     
 -0.316406408990677     
  0.667415555769756     
  0.664567414820060     
  0.768139936828085     
  0.450422406001188     
  0.455703425955632     
  0.652156301153210     
  0.649024601495587     
  0.467322711427399     
  0.472435142425200     
  0.633371515308821     
  0.636770095730961     
  0.481148368217275     
  0.485970449564778     
 -0.220065428383420     
 -0.210601634169551     
  0.617323572924591     
  0.620979822353844     
 -0.259332673570279     
 -0.250295699323041     
  0.500309749753869     
  0.495488893551171     
  0.604247424794788     
  0.600357838448567     
  0.509484242501200     
  0.514071275748956     
  0.589666076124384     
  0.585723134867095     
  0.523799125129905     
  0.528412957521222     
  0.575608242522049     
  0.571349552296141     
  0.542599665880800     
  0.538201670608375     
  0.557396664444759     
  0.552951563845023     
 -0.184484859681538     
 -0.175493006773322     
 -0.386289588663938     
 -3.256980305012687E-002
 -3.773580027179701E-002
  0.787576232249347     
 -0.287673881003086     
 -0.384856080171088     
  0.768447712681937     
 -7.996380757930946E-002
 -8.732879721311013E-002
 -0.371038224113135     
  0.788108136694000     
 -0.365875348138919     
 -0.328511172086446     
 -0.298053191036962     
 -1.380332125848776E-002
 -0.392031183170957     
 -1.916052587521359E-002
  0.747948795914906     
 -0.135914888054777     
 -0.127204229011265     
 -0.390076495658230     
 -0.388092241877218     
 -0.332948921653040     
 -0.389783705799990     
 -0.394324780846946     
 -1.306899406503724E-003
  4.532149713065637E-003
 -0.398128010801309     
  0.749042807648940     
  0.806828973721701     
 -0.399174907062028     
 -0.239576431362010     
 -0.229670428430964     
 -0.297613073974519     
 -0.167947269663893     
 -0.158820131445419     
 -0.198802447801808     
 -0.188911014627671     
 -0.402889607328037     
 -0.103875493183665     
 -0.112629032694123     
 -0.275242199693689     
 -0.285065350255486     
  2.234654664721714E-002
 -0.391740492533579     
  1.762950982309187E-002
  0.785470508764291     
 -0.403368628234663     
  0.727291345044174     
  0.808410361727111     
  3.898930155307404E-002
  4.067999365798865E-002
  0.809181465639401     
  0.314563277604488     
  0.320886915930995     
  0.334646777280112     
  0.341361298937989     
  0.296893455478617     
  0.304158796747091     
 -0.351358088965694     
  5.575670306929239E-002
  0.349863162503822     
  0.356701619611809     
  0.729126669477598     
  0.279025100762742     
  0.289647347294024     
 -0.385840753104391     
 -0.345885600104953     
  7.074269158594781E-002
  0.372249582724005     
  0.365213606550055     
  0.274476590274202     
  0.262150800603871     
  5.951217375875864E-002
  0.810386535627766     
  7.538377930337439E-002
  8.566503337107401E-002
  0.250189174338091     
  0.260151228906808     
 -0.308591916596422     
  0.380637953622468     
  0.387393053672219     
  0.810770480858881     
  0.236160453165328     
  0.244924070658560     
  0.100541016650802     
  9.119534023826828E-002
  0.395875429471661     
  0.402621340578307     
  0.709015119688406     
  0.706573192393296     
 -0.407629196384877     
  0.230505572763905     
  0.220705829741344     
  0.811210415296830     
  0.785290790186661     
 -4.388135680206287E-002
  0.115698471735488     
  0.107602338630665     
  0.417516028107809     
  0.411116381671951     
  0.692778128161912     
  0.690016127398308     
  0.205696827569054     
  0.215058727116789     
  0.123188549491161     
  0.130898684368900     
 -0.398790831713859     
 -0.256124136056337     
 -0.246689286194466     
  0.190080953814996     
  0.200352565596572     
 -4.918085840745239E-002
  0.139086196737279     
  0.147363470695320     
  0.183723517538380     
  0.174589329646528     
  0.432882951840475     
  0.426516965307722     
  0.154744822114814     
  0.165961941370432     
  0.677847338935287     
  0.674665081119152     
  0.448464701228440     
  0.442398011053950     
  0.662270010816677     
  0.658840284459022     
  0.459162150766387     
  0.465249715992814     
  0.647662730585869     
  0.643841497836629     
 -6.134489528826739E-002
  0.483059611141521     
  0.488850000120861     
  0.627621642518811     
  0.631661029662631     
  0.616043558155472     
  0.611586370386444     
  0.510348860753555     
  0.515919052203668     
  0.592601941132984     
  0.587816343593988     
 -6.844104795121556E-002
 -0.152716618553056     
 -0.142865671808732     
  0.543293066718806     
  0.537917633866449     
  0.568560809718273     
  0.563307919472347     
  0.804472174251334     
  0.764836727548506     
 -0.312913958647116     
  0.805677377501581     
 -0.411126323341817     
 -0.405513116311912     
 -0.402446135980901     
 -2.687149048542127E-002
 -3.066833177069763E-002
 -0.176611331048125     