 TITLE="euler solver on unstructured grid" 
 VARIABLES= "X" "Y"  "P" "Rou" "U"  "V"  "nuT"
 ZONE NODES=        5306  ELEMENTS=       10382  ZONETYPE=FETRIANGLE
 DATAPACKING=BLOCK
 VARLOCATION=([3-7]=CELLCENTERED)
 -0.272888222464466     
 -0.264453283107846     
 -0.256286165617506     
 -0.248163713718327     
 -0.240064753459342     
 -0.231981044167742     
 -0.223908351053335     
 -0.215844156132761     
 -0.205102064176954     
 -0.194370614543422     
 -0.183646062630781     
 -0.172928206264796     
 -0.162217100792260     
 -0.151510060309337     
 -0.140807540751080     
 -0.130110055279436     
 -0.119415261351937     
 -0.108723843811213     
 -9.803651611334448E-002
 -8.735107878309654E-002
 -7.666833111689034E-002
 -6.598907241114658E-002
 -5.531118903097323E-002
 -4.044264632391753E-002
 -2.557808088602992E-002
 -1.071717796939055E-002
  4.141319537577275E-003
  1.899561274790139E-002
  3.384695877315853E-002
  4.869550068058495E-002
  6.354141015086419E-002
  7.838485886467973E-002
  9.322596127582054E-002
  0.108065888655522     
  0.122902727663022     
  0.137737592342662     
  0.152570597148230     
  0.167401799306622     
  0.182231341885073     
  0.197059282110478     
  0.211886705413730     
  0.226711641227173     
  0.241535203595148     
  0.256357449744550     
  0.271178408288826     
  0.285998136454869     
  0.300816720083022     
  0.315635158763837     
  0.330451510543105     
  0.345266832238271     
  0.360081123849337     
  0.374894442603196     
  0.389706817113296     
  0.404518247379636     
  0.419329761606216     
  0.434139389225379     
  0.448948129827678     
  0.463756012026559     
  0.478563064435470     
  0.493369258440963     
  0.508174594043039     
  0.522980099445695     
  0.537783775467830     
  0.552586593086548     
  0.567388580915295     
  0.582189681727177     
  0.596989952749089     
  0.611789308140689     
  0.626588776105976     
  0.641386357463846     
  0.656182965964510     
  0.670978630221414     
  0.685773321621112     
  0.700566982936709     
  0.715359614168204     
  0.726702329029668     
  0.715196403065078     
  0.700287200649477     
  0.685379028317977     
  0.670471886070578     
  0.655565716680386     
  0.640660491533953     
  0.625756239244727     
  0.610851874381814     
  0.595949396126317     
  0.581047833501132     
  0.566147100665918     
  0.551247254847568     
  0.536348238819189     
  0.521450081194227     
  0.506551753768684     
  0.491655255723663     
  0.476759616082060     
  0.461864834843874     
  0.446970883395658     
  0.432077790350860     
  0.417185584322927     
  0.402293265721307     
  0.387402862340551     
  0.372513403203554     
  0.357624888310316     
  0.342737346274285     
  0.327850834322355     
  0.312965352454526     
  0.298079958307141     
  0.283196708288198     
  0.268314602807144     
  0.253433727704323     
  0.238554140206628     
  0.223675868927506     
  0.208798971093853     
  0.193922561568905     
  0.179048668147214     
  0.164176377078568     
  0.149305745589863     
  0.134436916748335     
  0.119569947780878     
  0.104704953141281     
  8.984104769278277E-002
  7.498031645682697E-002
  6.012193152354579E-002
  4.526600734672831E-002
  3.041271560705802E-002
  1.556222798521844E-002
  7.146875484458431E-004
 -1.413064777278598E-002
 -2.897157850324333E-002
 -4.380884671245237E-002
 -5.864213765249339E-002
 -6.928951909789592E-002
 -7.993352603662499E-002
 -9.057604319599465E-002
 -0.101215870691323     
 -0.111851808637927     
 -0.122485655922779     
 -0.133116126820855     
 -0.143741906993685     
 -0.154364652261003     
 -0.164982876603656     
 -0.175595036775593     
 -0.186202445235184     
 -0.196803158148119     
 -0.207394974159060     
 -0.217978147028828     
 -0.225907400932161     
 -0.233828156641659     
 -0.241737896173966     
 -0.249632384738887     
 -0.257503381663614     
 -0.265329712997180     
  -9.98265926488406     
  -8.98306871338993     
  -7.98347816189579     
  -6.98388761040166     
  -5.98429705890752     
  -4.98470650741339     
  -3.98511595591926     
  -2.98552540442512     
  -1.98593485293099     
 -0.986344301436853     
  1.324625005728064E-002
   1.01283680155141     
   2.01242735304555     
   3.01201790453968     
   4.01160845603382     
   5.01119900752795     
   6.01078955902208     
   7.01038011051622     
   8.00997066201035     
   9.00956121350449     
   10.0091517649986     
   9.98053831774645     
   9.95192487049427     
   9.92331142324210     
   9.89469797598992     
   9.86608452873775     
   9.83747108148557     
   9.80885763423340     
   9.78024418698122     
   9.75163073972905     
   9.72301729247687     
   9.69440384522470     
   9.66579039797252     
   9.63717695072035     
   9.60856350346817     
   9.57995005621600     
   9.55133660896383     
   9.52272316171165     
   9.49410971445948     
   9.46549626720730     
   9.43688281995513     
   8.43729226846099     
   7.43770171696686     
   6.43811116547273     
   5.43852061397859     
   4.43893006248446     
   3.43933951099032     
   2.43974895949619     
   1.44015840800205     
  0.440567856507921     
 -0.559022694986213     
  -1.55861324648035     
  -2.55820379797448     
  -3.55779434946861     
  -4.55738490096275     
  -5.55697545245688     
  -6.55656600395102     
  -7.55615655544515     
  -8.55574710693928     
  -9.55533765843342     
  -10.5549282099276     
  -10.5263147626754     
  -10.4977013154232     
  -10.4690878681710     
  -10.4404744209189     
  -10.4118609736667     
  -10.3832475264145     
  -10.3546340791623     
  -10.3260206319102     
  -10.2974071846580     
  -10.2687937374058     
  -10.2401802901536     
  -10.2115668429015     
  -10.1829533956493     
  -10.1543399483971     
  -10.1257265011449     
  -10.0971130538928     
  -10.0684996066406     
  -10.0398861593884     
  -10.0112727121362     
 -0.220220016101046     
 -0.222891479758264     
 -0.210999075611284     
 -0.213768280669718     
 -0.231524402783316     
 -0.228918249698723     
 -0.216500655979821     
 -0.219775732755486     
 -0.203840430341018     
 -0.200952753673333     
 -0.240416322640741     
 -0.237885797179856     
 -0.225107512148283     
 -0.228372205419619     
 -0.207337116106861     
 -0.210707778509266     
 -0.247208020075084     
 -0.249557655535749     
 -0.193571576731787     
 -0.190570680549750     
 -0.234359934465532     
 -0.237706089176360     
 -0.276277222001409     
 -0.274729131498942     
 -0.258585679440636     
 -0.256655745190686     
 -0.213927436890266     
 -0.217795079742916     
 -0.197304540939286     
 -0.200778053646996     
 -0.221337018141821     
 -0.225078701124549     
 -0.282814199897007     
 -0.281962191555032     
 -0.183264352229997     
 -0.180159834259103     
 -0.265830498035762     
 -0.267227535605961     
 -0.284349733916347     
 -0.281408447996480     
 -0.248115580705132     
 -0.244731416711907     
 -0.289340771056547     
 -0.204270385055967     
 -0.208251720029749     
 -0.275955242310882     
 -0.272885260760699     
 -0.173081824225968     
 -0.169871298880002     
 -0.291970719057744     
 -0.186964479337941     
 -0.190525750027110     
 -0.229225177279242     
 -0.233212589042104     
 -0.290496420882464     
 -0.221836124747887     
 -0.226192117162914     
 -0.162868856101344     
 -0.159539582440712     
 -0.258825051217312     
 -0.255691236526978     
 -0.290319187627808     
 -0.212182309449295     
 -0.216710932837671     
 -0.293705981197923     
 -0.193675390514391     
 -0.197738771989012     
 -0.152341389533036     
 -0.148892953749622     
 -0.176960271624354     
 -0.180598350299441     
 -0.285257041419708     
 -0.268727678554507     
 -0.266695443342391     
 -0.240198684045636     
 -0.244546344565435     
 -0.299341559959529     
 -0.277941863842006     
 -0.141487246514319     
 -0.137937284808949     
 -0.300449311206324     
 -0.302113987688615     
 -0.277211442903751     
 -0.201106864557240     
 -0.205732397273398     
 -0.167412174859183     
 -0.171174363949814     
 -0.126850808859552     
 -0.130480055401148     
 -0.221824843559492     
 -0.226972741324302     
 -0.183074210073001     
 -0.187178048562347     
 -0.294310558098139     
 -0.232391375557502     
 -0.237318379904759     
 -0.119472466056167     
 -0.115786148131870     
 -0.252942881105103     
 -0.257584466524507     
 -0.161265977927580     
 -0.157330509243711     
 -0.301277076727732     
 -0.290169151469460     
 -0.304059465823730     
 -0.108560772321996     
 -0.104832712678337     
 -0.210008533856710     
 -0.215261469397105     
 -0.193927951001893     
 -0.189261996842884     
 -0.150322905361686     
 -0.146238279389866     
 -0.304442790477118     
 -0.174251916404488     
 -0.178348194984521     
 -9.769125604481196E-002
 -9.393203511810656E-002
 -0.285872972714518     
 -0.311005082263499     
 -0.265803936536174     
 -0.270309220545548     
 -0.309783209587393     
 -0.310046894915510     
 -0.302678535511417     
 -0.138930868383732     
 -0.134739016103986     
 -0.278130426120596     
 -8.703425142074972E-002
 -8.326346645539334E-002
 -0.313608486998244     
 -0.315946085644502     
 -0.170873839250504     
 -0.166504924600663     
 -7.664376301909727E-002
 -7.284319054569260E-002
 -0.202452622880777     
 -0.197142712615778     
 -0.313778452538713     
 -0.127403942252020     
 -0.123141420516143     
 -0.280121265610472     
 -0.247404407728258     
 -0.253269115286661     
 -0.220675007595464     
 -0.226641707781537     
 -0.177282357715667     
 -0.181901181963409     
 -0.292339615952033     
 -6.557639338179801E-002
 -6.172713199820398E-002
 -0.233707386475911     
 -0.239642765412460     
 -0.111786710590103     
 -0.116074955614403     
 -0.160014427358691     
 -0.155394938564871     
 -0.290474672675379     
 -4.887912185615154E-002
 -5.275591033725102E-002
 -0.316409535317289     
 -0.316791641853935     
 -0.105086271457061     
 -0.100773750291865     
 -0.322640171840806     
 -0.206989238226005     
 -0.212998340350391     
 -0.147908233753594     
 -0.143152046025893     
 -3.467212813575179E-002
 -3.856351653490862E-002
 -0.302973711803516     
 -0.188526366521770     
 -0.183217271985961     
 -0.323518223736823     
 -0.263678017192707     
 -0.270353239144836     
 -9.370770274839323E-002
 -8.938620467122710E-002
 -0.303728018916204     
 -1.994045146742185E-002
 -2.384586268656211E-002
 -0.326838829254180     
 -0.131150401895506     
 -0.136005812690798     
 -8.369122587491559E-002
 -7.945818778135848E-002
 -0.328481056174256     
 -0.277525040921509     
 -0.329651086165697     
 -0.167340266988196     
 -0.172528828078911     
 -0.286131608491244     
 -4.891221090953532E-003
 -8.822387948923377E-003
 -7.438056029561728E-002
 -7.002055586759058E-002
 -0.118590080535723     
 -0.123494416035425     
 -0.192170423252283     
 -0.198221587947118     
  1.032432287509954E-002
  6.338800942085981E-003
 -0.316619752741987     
 -0.239603909829398     
 -0.232808760733747     
 -0.218551545711960     
 -0.225303548530879     
 -6.179676466352180E-002
 -5.739888849794159E-002
 -0.246964351243589     
 -0.253971800912395     
 -0.318034012685758     
  2.147676230488352E-002
  2.557475791601470E-002
  0.324255159443386     
  0.320744980374246     
 -0.112477996330223     
 -0.107668420972375     
  0.338896941924741     
  0.335481998544710     
  0.309711189885063     
  0.306060878387850     
  4.077313086998931E-002
  3.648763552618632E-002
  0.726693036738780     
  0.726367913379607     
 -0.157190830539844     
 -0.151809202706467     
 -0.290401862172441     
 -4.820442388734222E-002
 -4.381357415546999E-002
  0.353664691152905     
  0.350320501284275     
  0.295160241030606     
  0.291326563078035     
 -0.331493144130354     
  5.587895063451367E-002
  5.138615284820764E-002
  0.365235099703780     
  0.368513247814860     
 -0.330826580122712     
  0.280524755387748     
  0.276501862455638     
  0.380191373928140     
  0.383397387685515     
  6.627966574274113E-002
  7.089742437533941E-002
  0.712013038638073     
  0.711468528463708     
  0.265802301753526     
  0.261637091536416     
  0.395174929101371     
  0.398299801996335     
  0.696835022480924     
  0.696086921152582     
  0.251018773929839     
  0.246777813541398     
  8.586303736127113E-002
  8.124141971998911E-002
  0.410186121763502     
  0.413222042389392     
  0.236189428454644     
  0.231912816493560     
  0.681656880336926     
  0.680721744329280     
  0.100818238794662     
  9.626777080727997E-002
  0.425229447586691     
  0.428170988683413     
  0.221314271238641     
  0.217007208395936     
  0.666569143094465     
  0.665461788344877     
  0.115802261079980     
  0.111333883565431     
  0.206380458879911     
  0.202036948323125     
  0.440296842490325     
  0.443139711100740     
  0.130846595914226     
  0.126429466994401     
  0.651552021263564     
  0.650284744492346     
  0.191370828955708     
  0.186991236102543     
  0.145962259240091     
  0.141556853924563     
  0.176278122257711     
  0.171873723456472     
  0.455344285559373     
  0.458084806253962     
  0.161124421006253     
  0.156713994422651     
  0.636560166600071     
  0.635142852789951     
  0.470307829919894     
  0.472944309617004     
  0.621560592239764     
  0.620002227117996     
 -0.102061506902903     
 -9.712537132087973E-002
 -0.337528185614989     
  0.487703565681120     
  0.485169187324594     
 -0.269357393385506     
 -0.261740632955594     
  0.606557312396847     
  0.604866821185233     
  0.499970820383691     
  0.502406767752874     
  0.589764882781413     
  0.591579201495565     
  0.514770625043509     
  0.517110590131212     
  0.574687407424749     
  0.576619918778061     
  0.529619955258333     
  0.531864871761795     
  0.559607558573662     
  0.561651771596652     
  0.546712144867166     
  0.544564479889744     
 -3.385550200073729E-002
 -2.947744907688668E-002
 -0.335849043543071     
 -0.331443123582937     
 -0.301285776874299     
 -0.139612762265491     
 -0.145004495585804     
 -0.182093774250503     
 -0.176039694907814     
 -0.203253414350585     
 -0.210053545117016     
 -0.333452134381250     
 -0.340807028724754     
 -8.674810262054510E-002
 -8.186955182911425E-002
 -1.879528738882298E-002
 -1.441018986689893E-002
 -0.343011279499854     
 -0.304125124340192     
  0.741542440293132     
  0.741421598992543     
 -0.344587100909068     
 -0.344148326786791     
 -0.127725900222259     
 -0.133328796240455     
  1.150112991291720E-003
 -0.276460234475899     
 -3.281204900903037E-003
 -0.345958206653407     
  0.739979744618560     
 -0.285343564444806     
 -0.167087711343650     
 -0.161106207644914     
 -0.347709372370034     
 -7.191124037071600E-002
 -6.696240591858729E-002
  1.687250880877840E-002
  1.231789368817642E-002
 -0.316113548139207     
 -0.115726665770962     
 -0.110153828858158     
  0.740369458898010     
 -0.238752305194653     
 -0.231240795956395     
 -5.804981930626776E-002
 -5.315068969876304E-002
 -0.318732811319637     
 -0.193163454926453     
 -0.186282806795912     
  2.767743817136258E-002
  0.313828422730521     
  0.318269583912582     
  0.328260195623631     
  0.332549169918911     
  3.253830810116731E-002
  0.304119305892522     
  0.299400666449256     
  0.347170069482637     
  0.342953831018076     
  4.264377727449542E-002
  4.801421803877301E-002
 -0.216177058745724     
 -0.223710015920057     
 -0.245525800329609     
 -0.253236559427408     
  0.289788050836512     
  0.284702128291116     
  0.362030066864428     
  0.357863319305104     
  6.327069944856824E-002
  5.745697912308535E-002
  0.756774655078892     
  0.269818623777258     
  0.275224663745079     
  0.372869130800241     
  0.376977574929785     
 -0.348930370985717     
  0.757423182403308     
  0.724310763010155     
  0.723604353708662     
  7.837322027063465E-002
  7.243232759097080E-002
  0.254961221590690     
  0.260518535728115     
  0.387925045154414     
  0.391956154532871     
  0.708407807932197     
  0.707395877521140     
  0.245722505066968     
  0.240153411856927     
  0.406961307851033     
  0.403024243054347     
 -4.431263203615887E-002
 -3.948180517426927E-002
  8.759103039592504E-002
  9.341557296827245E-002
  0.691370759794266     
  0.692657813341224     
  0.225292664487983     
  0.230849107454397     
  0.422016243305174     
  0.418184277046910     
  0.102840221169096     
  0.108482880112318     
  0.675640051983656     
  0.677170909955670     
  0.210307238999789     
  0.215881704657774     
  0.118140585132241     
  0.123653188567370     
  0.433424161262096     
  0.437144363740822     
 -0.289866855505871     
  0.661898496875335     
  0.660149109148133     
  0.195172181468778     
  0.200780372767259     
  0.138987444220781     
  0.133491919923116     
 -0.150610352141541     
 -0.144265288979583     
  0.179866699994266     
  0.185499296616666     
  0.154483206574704     
  0.148920660513796     
  0.448715839579062     
  0.452318447733313     
  0.164413678830779     
  0.170036696114748     
  0.646724646889943     
  0.644775374717717     
  0.467372371394184     
  0.463894117023944     
  0.629411331491821     
  0.631545280108348     
 -0.353078071392102     
  0.482158064704444     
  0.478802136805314     
  0.614005814511730     
  0.616309511313959     
  0.493508359219313     
  0.496753033152560     
  0.601094843945077     
  0.598639398149486     
 -0.260397245748097     
 -0.268628279031418     
  0.508160248684339     
  0.511302623867461     
  0.585998333755253     
  0.583403392243600     
  0.525907374689162     
  0.522861846536796     
  0.568153542258374     
  0.570883564372039     
  0.540666354982614     
  0.537716275016207     
  0.552841190818750     
  0.555690400332997     
  0.756885213810029     
 -0.347299767687154     
 -0.350033966300511     
 -0.300312687361025     
 -2.473810574797298E-002
 -2.952562013292840E-002
 -9.303234253084411E-002
 -9.870078803413368E-002
 -0.331501829151068     
 -0.357314691633569     
 -0.334434786121977     
 -0.173009824125538     
 -0.166067273543733     
 -0.199216440265809     
 -0.206874164628063     
 -0.355654119650373     
 -8.762175718824284E-003
 -1.355951898358044E-002
  0.754926775814930     
  0.755219743942616     
 -0.303737158919285     
 -0.361397796624051     
 -7.728929064988779E-002
 -8.289436154733845E-002
 -0.359384940115439     
  7.569362712857909E-003
 -0.284457079326160     
 -0.122661656915500     
 -0.129173648158315     
  2.712806844794636E-003
 -0.362240548895467     
 -0.359549481906342     
 -0.275327344669011     
  0.737105092425433     
 -0.364991195342006     
 -6.224698870850940E-002
 -6.771478734312171E-002
 -0.230898937963398     
 -0.239121056979368     
  1.886263469794432E-002
  2.388656461496879E-002
 -0.315249682274845     
 -0.347882803833255     
  0.737842446541539     
 -0.351459120328513     
  0.321098391472156     
  0.326209656160572     
  0.307365215893830     
  0.312745196419361     
  3.415794296389705E-002
  0.773002647188611     
  3.992910026808660E-002
  0.335407800563707     
  0.340452411399253     
  0.299026959090673     
  0.293084640770480     
  0.355374332125532     
  0.350339528692177     
  0.773120482075978     
  4.858145376897819E-002
  5.553042220440003E-002
 -5.449115534103614E-002
 -4.923082708205219E-002
  0.284671057385095     
  0.278047642438803     
  0.370418475056372     
  0.365408714581054     
  0.774111346841527     
 -0.318353235492384     
  7.078229202535814E-002
  6.330667768978869E-002
 -0.364168855662000     
  0.263031818704507     
  0.270053211721213     
  0.380536682328304     
  0.385481796025033     
  0.720739713111888     
  0.719571994104660     
  0.248318795072704     
  0.255309373640802     
  7.860954312728290E-002
  8.588019639356671E-002
  0.395700377920009     
  0.400547776287760     
 -0.188690369368506     
 -0.180858630427535     
  0.704036039880539     
  0.702486122136609     
  0.240474745294121     
  0.233626390656414     
 -0.110927540578199     
 -0.104417252763743     
  0.100963190176138     
  9.405103966453134E-002
  0.774169054244662     
  0.415654335749461     
  0.410924448551824     
  0.686066218485823     
  0.687941479905245     
 -0.251471313706787     
 -0.243288967609168     
  0.218714118152095     
  0.225537841853963     
  0.116150541129903     
  0.109557892425844     
  0.430875439933530     
  0.426271752805450     
  0.203580029653649     
  0.210449393406247     
  0.672365581462571     
  0.670208277357178     
  0.125097561980402     
  0.131573162074202     
  0.188202657795027     
  0.195112413727364     
  0.147349640600246     
  0.140720952152509     
  0.179415609164531     
  0.172489367559090     
  0.441806666339325     
  0.446280212509685     
  0.163401309031960     
  0.156550204470343     
  0.657040929332379     
  0.654630299550108     
 -0.367876724996427     
 -0.213732790942584     
 -0.222099213822189     
  0.457495168197775     
  0.461828544309471     
  0.639112929157292     
  0.641756779855704     
  0.472671282306580     
  0.476843158198639     
  0.623484007279083     
  0.626344542018515     
 -0.369333893779382     
  0.487238045592683     
  0.491277798250941     
 -0.364377537026351     
  0.610722510506756     
  0.607666292322440     
 -3.673093878130048E-002
 -4.189216121760798E-002
  0.501689343467775     
  0.505616524272730     
  0.595357752334549     
  0.592147440327686     
  0.516141885898949     
  0.519967874294999     
  0.577033342154134     
  0.580402893837967     
  0.534477486780999     
  0.530746176093892     
  0.561345191424607     
  0.564882284156978     
  0.549289392411884     
  0.545650352620294     
 -0.288907746229047     
 -0.158249479431463     
 -0.150802426988599     
  0.771021914285904     
 -0.258242858535232     
 -0.266908257408216     
 -8.751068644090225E-002
 -9.393809614719476E-002
 -0.299222570353775     
 -1.983183373008808E-002
 -2.488878352392809E-002
 -0.365605055121987     
  0.751959645604650     
 -0.141854639124154     
 -0.134382136173313     
 -0.374318810428179     
 -0.330703798782337     
 -0.334313637750090     
 -0.371805864728063     
  0.771046685055354     
 -0.369920016639564     
 -2.584863245232986E-003
 -7.734259203366442E-003
 -7.232822793556179E-002
 -0.376041766576884     
 -7.846661766788099E-002
  0.752554623922418     
 -0.171150628867798     
 -0.163074374830796     
 -0.203479477467684     
 -0.194860637337628     
 -0.379126440407781     
 -0.302184580130054     
 -0.373280226380827     
 -0.274357088175114     
 -0.283728113785243     
 -0.379917049421939     
 -0.239354121973358     
 -0.230396446870340     
  1.458531145967536E-002
  9.514846799398980E-003
  0.789764020277632     
 -0.115122236346905     
 -0.122634446362412     
 -0.382869605650180     
  0.732960109191482     
 -0.383491946082699     
 -0.351911533867438     
  2.663843571958696E-002
  3.156732950452422E-002
  0.314504590744712     
  0.320263472926160     
  0.327162644326694     
  0.332928412978167     
 -5.477184831239886E-002
  0.302218696606431     
  0.308549866614764     
  4.038969824984020E-002
  0.790423014359146     
 -0.313399736477068     
 -0.347440476335877     
 -6.060682338639140E-002
  0.734147750627698     
  4.779853120354684E-002
  0.342564058557708     
  0.348416091291798     
  0.286721481569099     
  0.294273013396556     
  0.791429340059041     
  5.338224877986934E-002
  0.363676180810802     
  0.357765573314681     
  6.316988166685285E-002
  0.279662126105834     
  0.270879063905246     
  0.373001032968817     
  0.378877481303798     
  6.922992510512711E-002
  7.827486088363234E-002
  0.256119581086095     
  0.264950177284575     
 -0.380404028397308     
 -0.387080817356815     
  0.388238845735188     
  0.394013088227690     
  0.715917869797956     
  0.714200067927281     
  0.241974550282062     
  0.250163415835064     
  0.791844826699278     
  8.490267662017600E-002
  9.330124693022769E-002
  0.403478585208992     
  0.409117014752650     
  0.235296716506921     
  0.227255428766576     
  0.792183223169864     
  0.698715092803579     
  0.696578123747131     
  0.108402315592927     
  0.100667133097056     
 -9.817518060425147E-002
  0.212166551855341     
  0.220303891700747     
 -0.105458440059542     
  0.424306769619352     
  0.418818214501642     
  0.123706943459307     
  0.116418935796054     
  0.682813709440346     
  0.680331287739660     
  0.196852159524887     
  0.205099714438839     
 -0.154611790171809     
 -0.146225705826236     
  0.132131956866978     
  0.139495353939674     
  0.181178548204715     
  0.189433782505411     
  0.148019804674458     
  0.156087396063476     
  0.439752931889132     
  0.434410272970206     
  0.164635091494540     
  0.172992382070455     
 -0.316460002761174     
  0.667393077275402     
  0.664605924462594     
  0.768178499111435     
  0.450468650959615     
  0.455668655578033     
  0.652132794746129     
  0.649063877403009     
  0.467368207611047     
  0.472401499191122     
  0.633411593696097     
  0.636745500203608     
  0.481191888638447     
  0.485939086621304     
 -0.220000321914159     
 -0.210671889279659     
  0.617364464118553     
  0.620954103386759     
 -0.259276859876120     
 -0.250357034843710     
  0.500278295191169     
  0.495532838270515     
  0.604220742534633     
  0.600399350119803     
  0.509526649828381     
  0.514041677334891     
  0.589639875649787     
  0.585763864958594     
  0.523842281030686     
  0.528382942488117     
  0.575579827549985     
  0.571392177544540     
  0.542571241308939     
  0.538243566250462     
  0.557367373704821     
  0.552994658246365     
 -0.184422840173720     
 -0.175559449947136     
 -0.386300798826608     
 -3.262700677847401E-002
 -3.767962796404864E-002
  0.787557358322953     
 -0.287725661588595     
 -0.384813292483529     
  0.768425758486002     
 -8.002370605806496E-002
 -8.727069877965860E-002
 -0.371095540694719     
  0.788143492338733     
 -0.365827125174546     
 -0.328463109463740     
 -0.298007231174559     
 -1.386166322389491E-002
 -0.392049648062734     
 -1.910333970304117E-002
  0.747990085085482     
 -0.135853742703260     
 -0.127268557901967     
 -0.390073037463249     
 -0.388080622037503     
 -0.333007137565289     
 -0.389834956926050     
 -0.394306135227601     
 -1.248997084675867E-003
  4.473536924168488E-003
 -0.398154408076530     
  0.749018150259316     
  0.806813341660977     
 -0.399147502350405     
 -0.239506444160540     
 -0.229745909534059     
 -0.297669855336029     
 -0.167884135759072     
 -0.158887300480999     
 -0.198734335280121     
 -0.188983909414194     
 -0.402852869851076     
 -0.103940801512578     
 -0.112566223242804     
 -0.275300259469989     
 -0.285012913588738     
  2.228792054246754E-002
 -0.391801669859521     
  1.768780400935831E-002
  0.785515034161822     
 -0.403403874885823     
  0.727334616758319     
  0.808442184155662     
  3.904658236519891E-002
  4.062175660643083E-002
  0.809175047414046     
  0.314617206534599     
  0.320841400164921     
  0.334701681302745     
  0.341314971845810     
  0.296948043607322     
  0.304112828353544     
 -0.351420887048247     
  5.570023059649286E-002
  0.349917171823306     
  0.356656542280286     
  0.729099950828200     
  0.279082881021100     
  0.289599167794757     
 -0.385788222198932     
 -0.345832578962513     
  7.068551691182717E-002
  0.372204074151090     
  0.365268505735314     
  0.274428435414930     
  0.262206299156602     
  5.957096549702557E-002
  0.810408803016083     
  7.544209640976730E-002
  8.560921596957391E-002
  0.250244618493239     
  0.260101019457669     
 -0.308540696220446     
  0.380691316845641     
  0.387349550902714     
  0.810773517591293     
  0.236217610165255     
  0.244873930282533     
  0.100484218903367     
  9.125501537012655E-002
  0.395929603793453     
  0.402577468392283     
  0.708987389216458     
  0.706617324201904     
 -0.407673831704876     
  0.230453319571435     
  0.220762464483480     
  0.811223050280967     
  0.785262806547559     
 -4.394446271077602E-002
  0.115642814666062     
  0.107660809910736     
  0.417473876425689     
  0.411169196383931     
  0.692751096653778     
  0.690059421856242     
  0.205755115075113     
  0.215006474299981     
  0.123248172229097     
  0.130841745619354     
 -0.398796012877637     
 -0.256059378454057     
 -0.246759547986195     
  0.190138748657236     
  0.200297979782069     
 -4.911848320396534E-002
  0.139144777364398     
  0.147307360945062     
  0.183668626372715     
  0.174649068541801     
  0.432840246025175     
  0.426570705417389     
  0.154804870768779     
  0.165903686795723     
  0.677818327090014     
  0.674710135804932     
  0.448423683443589     
  0.442450391143590     
  0.662241193748312     
  0.658884935056200     
  0.459215577277550     
  0.465208026170761     
  0.647631642590554     
  0.643888154669362     
 -6.141082017607122E-002
  0.483111392890865     
  0.488810462361418     
  0.627668083191456     
  0.631629890185447     
  0.616009751903857     
  0.611635162798166     
  0.510399694883370     
  0.515881066270856     
  0.592567280974777     
  0.587865530632424     
 -6.837606768615531E-002
 -0.152648677236609     
 -0.142937271467516     
  0.543256072522860     
  0.537968091762219     
  0.568523632875635     
  0.563359111027746     
  0.804447511976063     
  0.764884493974328     
 -0.312976287463030     
  0.805718553466379     
 -0.411180823683686     
 -0.405466560190656     
 -0.402458476720296     
 -2.693671221028924E-002
 -3.060421420855709E-002
 -0.176541923233488     