 TITLE="euler solver on unstructured grid" 
 VARIABLES= "X" "Y"  "P" "Rou" "U"  "V"  "nuT"
 ZONE NODES=        5306  ELEMENTS=       10382  ZONETYPE=FETRIANGLE
 DATAPACKING=BLOCK
 VARLOCATION=([3-7]=CELLCENTERED)
 -0.272881395455072     
 -0.264433475154108     
 -0.256261432494168     
 -0.248135398915172     
 -0.240033563577979     
 -0.231947437939789     
 -0.223872659832774     
 -0.215806635535522     
 -0.205062420281254     
 -0.194329137366571     
 -0.183602989739862     
 -0.172883739054178     
 -0.162171412229535     
 -0.151463302756277     
 -0.140759850191917     
 -0.130061553042180     
 -0.119366058486695     
 -0.108674041875831     
 -9.798620803406013E-002
 -8.730035151154721E-002
 -7.661726555508729E-002
 -6.593774341147592E-002
 -5.525966805319697E-002
 -4.039096671412043E-002
 -2.552636227590955E-002
 -1.066553052338785E-002
  4.192793375951269E-003
  1.904681660976822E-002
  3.389780401056963E-002
  4.874590294889024E-002
  6.359129026937174E-002
  7.843414281665580E-002
  9.327457848717013E-002
  0.108113773691101     
  0.122949817719680     
  0.137783828034880     
  0.152615922533128     
  0.167446160162639     
  0.182274688293947     
  0.197101565875266     
  0.211927880894460     
  0.226751663694550     
  0.241574031737506     
  0.256395043971542     
  0.271214729870766     
  0.286033148383391     
  0.300850387931738     
  0.315667448081351     
  0.330482388649357     
  0.345296268149512     
  0.360109086581817     
  0.374920902894486     
  0.389731746561625     
  0.404541617583236     
  0.419351544998968     
  0.434159559151841     
  0.448966659607398     
  0.463772875839747     
  0.478578237322995     
  0.493382714583034     
  0.508186307619864     
  0.522990045473138     
  0.537791929011766     
  0.552592928327185     
  0.567393072893503     
  0.582192303762505     
  0.596990679882407     
  0.611788112830885     
  0.626585631647593     
  0.641381237201441     
  0.656175840635653     
  0.670969471424335     
  0.685762100093382     
  0.700553667694578     
  0.715344174227924     
  0.726684148678818     
  0.715176053921899     
  0.700265469876851     
  0.685355946899653     
  0.670447484990305     
  0.655540025200593     
  0.640633538056411     
  0.625728053031864     
  0.610822482139089     
  0.595918824509173     
  0.581016110050680     
  0.566114250341288     
  0.551213304329212     
  0.536313213066237     
  0.521414006026470     
  0.506514654170261     
  0.491617156628697     
  0.476720543310342     
  0.461824814215195     
  0.446929939869149     
  0.432035949746312     
  0.417142873320791     
  0.402249711027040     
  0.387358491470256     
  0.372468244559002     
  0.357578970293276     
  0.342690698147187     
  0.327803487068947     
  0.312917337058558     
  0.298031307498689     
  0.283147456468642     
  0.268264784402872     
  0.253383379723702     
  0.238503301379344     
  0.223624578843905     
  0.208747271065600     
  0.193870496375312     
  0.178996283378237     
  0.164123720931150     
  0.149252867982266     
  0.134383871902120     
  0.119516791638926     
  0.104651745089111     
  8.978785058355870E-002
  7.492719567567875E-002
  6.006895764456838E-002
  4.521325438665546E-002
  3.036026274658165E-002
  1.551015956898865E-002
  6.630922244111783E-004
 -1.418167358573234E-002
 -2.902193241160506E-002
 -4.385841855178854E-002
 -5.869080779110642E-002
 -6.933746375137990E-002
 -7.998067379523262E-002
 -9.062231915732512E-002
 -0.101261193953365     
 -0.111896092299058     
 -0.122528807006746     
 -0.133158043769814     
 -0.143782478807541     
 -0.154403757561733     
 -0.165020379407028     
 -0.175630784769849     
 -0.186236265402717     
 -0.196834849094560     
 -0.207424298367342     
 -0.218004814431626     
 -0.225931838840516     
 -0.233850109439643     
 -0.241757032507596     
 -0.249648245876545     
 -0.257515261003691     
 -0.265336267049893     
  -9.97379576732437     
  -8.97423022319048     
  -7.97466467905659     
  -6.97509913492270     
  -5.97553359078881     
  -4.97596804665493     
  -3.97640250252104     
  -2.97683695838715     
  -1.97727141425326     
 -0.977705870119366     
  2.185967401452382E-002
   1.02142521814841     
   2.02099076228230     
   3.02055630641619     
   4.02012185055008     
   5.01968739468397     
   6.01925293881786     
   7.01881848295175     
   8.01838402708564     
   9.01794957121953     
   10.0175151153534     
   9.98804100840646     
   9.95856690145950     
   9.92909279451254     
   9.89961868756558     
   9.87014458061862     
   9.84067047367166     
   9.81119636672470     
   9.78172225977774     
   9.75224815283079     
   9.72277404588383     
   9.69329993893687     
   9.66382583198991     
   9.63435172504295     
   9.60487761809599     
   9.57540351114903     
   9.54592940420207     
   9.51645529725511     
   9.48698119030815     
   9.45750708336119     
   9.42803297641423     
   8.42846743228034     
   7.42890188814645     
   6.42933634401256     
   5.42977079987867     
   4.43020525574478     
   3.43063971161089     
   2.43107416747700     
   1.43150862334311     
  0.431943079209222     
 -0.567622464924668     
  -1.56718800905856     
  -2.56675355319245     
  -3.56631909732634     
  -4.56588464146023     
  -5.56545018559412     
  -6.56501572972801     
  -7.56458127386190     
  -8.56414681799579     
  -9.56371236212968     
  -10.5632779062636     
  -10.5338037993166     
  -10.5043296923696     
  -10.4748555854227     
  -10.4453814784757     
  -10.4159073715288     
  -10.3864332645818     
  -10.3569591576348     
  -10.3274850506879     
  -10.2980109437409     
  -10.2685368367940     
  -10.2390627298470     
  -10.2095886229001     
  -10.1801145159531     
  -10.1506404090061     
  -10.1211663020592     
  -10.0916921951122     
  -10.0622180881653     
  -10.0327439812183     
  -10.0032698742713     
 -0.220176631094192     
 -0.222923788135641     
 -0.210953808336077     
 -0.213802940664505     
 -0.231554559071857     
 -0.228876560800933     
 -0.216449886765978     
 -0.219815623212770     
 -0.203877586035599     
 -0.200905494797273     
 -0.240444046615821     
 -0.237846048141548     
 -0.225058203159213     
 -0.228410180458451     
 -0.207284162999267     
 -0.210750322147641     
 -0.247170945907041     
 -0.249582177089828     
 -0.193611051806058     
 -0.190521619361388     
 -0.234311598033750     
 -0.237742570080693     
 -0.276279364384025     
 -0.274712507663363     
 -0.258606021766037     
 -0.256622385534366     
 -0.213869240066211     
 -0.217842552738855     
 -0.197249474088425     
 -0.200823214141462     
 -0.221281645593917     
 -0.225122955811388     
 -0.282810520191939     
 -0.281950057660597     
 -0.183305904305317     
 -0.180109212663424     
 -0.265802030760315     
 -0.267242834928883     
 -0.284354353049697     
 -0.281387506005568     
 -0.248149621219728     
 -0.244684867955589     
 -0.289332238140934     
 -0.204209378319238     
 -0.208302496035006     
 -0.275965267357658     
 -0.272861854499796     
 -0.173125388422104     
 -0.169819175836119     
 -0.291969349096759     
 -0.186907703272097     
 -0.190573131893378     
 -0.229168993227742     
 -0.233257230625351     
 -0.290480216500830     
 -0.221773864127876     
 -0.226243270229289     
 -0.162914551963521     
 -0.159485841709564     
 -0.258855024968236     
 -0.255647994751017     
 -0.290293093403910     
 -0.212115693269518     
 -0.216766958162310     
 -0.293713522254208     
 -0.193612219415478     
 -0.197792237756331     
 -0.152389200035498     
 -0.148837629050826     
 -0.176902144801107     
 -0.180647576395913     
 -0.285270050823108     
 -0.268752150088526     
 -0.266657147581486     
 -0.240142252596623     
 -0.244590579170164     
 -0.299332267861340     
 -0.277910684043427     
 -0.141536923742782     
 -0.137880640649997     
 -0.300429080350955     
 -0.302115075922089     
 -0.277229922795167     
 -0.201037065485306     
 -0.205792159812063     
 -0.167352192299549     
 -0.171225918782116     
 -0.126793159641765     
 -0.130531292917041     
 -0.221753101802787     
 -0.227033463349233     
 -0.183009792906843     
 -0.187233278619152     
 -0.294327361991380     
 -0.232326150888796     
 -0.237371960457669     
 -0.119524969020607     
 -0.115727788933568     
 -0.252888514597473     
 -0.257625668590875     
 -0.161320499575831     
 -0.157268061780205     
 -0.301246365480536     
 -0.290131879052603     
 -0.304070501046120     
 -0.108614364854872     
 -0.104773814370237     
 -0.209932121110562     
 -0.215327468501114     
 -0.193990182023852     
 -0.189190302847933     
 -0.150380070337348     
 -0.146173742022850     
 -0.304464696660847     
 -0.174187280391041     
 -0.178404074132882     
 -9.774585267614264E-002
 -9.387268001989668E-002
 -0.285893489101338     
 -0.310990412896912     
 -0.265754205061271     
 -0.270344388870116     
 -0.309778068488053     
 -0.310022497457359     
 -0.302636271147844     
 -0.138990096670651     
 -0.134672991815106     
 -0.278086685591884     
 -8.708959703509775E-002
 -8.320389563049387E-002
 -0.313612203767625     
 -0.315961177400926     
 -0.170934069537081     
 -0.166436324797093     
 -7.670025794880557E-002
 -7.278298837062221E-002
 -0.202522394135473     
 -0.197063143421100     
 -0.313744488490077     
 -0.127464754423813     
 -0.123074397064412     
 -0.280148745745878     
 -0.247336637319941     
 -0.253324411295058     
 -0.220592100340726     
 -0.226713786538528     
 -0.177210543760419     
 -0.181964108204029     
 -0.292366346719055     
 -6.563458241174069E-002
 -6.166578122398256E-002
 -0.233630656481432     
 -0.239707973493731     
 -0.111719268237431     
 -0.116136760553046     
 -0.160078866497025     
 -0.155322682632187     
 -0.290425083558724     
 -4.881683248822363E-002
 -5.281565281948496E-002
 -0.316362736414341     
 -0.316819164415161     
 -0.105149182275227     
 -0.100705759809782     
 -0.322633611612511     
 -0.206901757141694     
 -0.213075633577691     
 -0.147975294238271     
 -0.143077779108579     
 -3.460911351101624E-002
 -3.862464298990192E-002
 -0.303007875505471     
 -0.188598259750254     
 -0.183136235306673     
 -0.323495843828331     
 -0.263615673668038     
 -0.270401587567283     
 -9.377170680429640E-002
 -8.931769532873640E-002
 -0.303672843497273     
 -1.987689629819522E-002
 -2.390818839710211E-002
 -0.326845584130231     
 -0.131074645981307     
 -0.136074967516480     
 -8.375465962818276E-002
 -7.939073978028914E-002
 -0.328443890462338     
 -0.277468739283003     
 -0.329670644115460     
 -0.167260132796415     
 -0.172600574123320     
 -0.286171014144307     
 -4.827347459626550E-003
 -8.885684462881818E-003
 -7.444735110235245E-002
 -6.995022053962974E-002
 -0.118513439212959     
 -0.123565095907785     
 -0.192079843795384     
 -0.198302648032323     
  1.038826350684340E-002
  6.274791090080436E-003
 -0.316660843081047     
 -0.239682215580922     
 -0.232719237417113     
 -0.218456368139787     
 -0.225388136497964     
 -6.186613467067423E-002
 -5.732657483239111E-002
 -0.246881439645813     
 -0.254042774292623     
 -0.317973341346218     
  2.141227028615860E-002
  2.563853012272628E-002
  0.324298638754869     
  0.320685188553604     
 -0.112548069155494     
 -0.107592939583336     
  0.338939184686211     
  0.335422760486249     
  0.309755974104584     
  0.306000451373267     
  4.083654386739302E-002
  3.642279872249107E-002
  0.726687513241820     
  0.726338410344427     
 -0.157266391335226     
 -0.151726016816949     
 -0.290339171804971     
 -4.827583085209237E-002
 -4.373982859859211E-002
  0.353705667682609     
  0.350261821253959     
  0.295206433181009     
  0.291265416849550     
 -0.331441688471865     
  5.594187460306151E-002
  5.132098905835172E-002
  0.365177039798082     
  0.368552873054586     
 -0.330859820643156     
  0.280572403581395     
  0.276440007629818     
  0.380134002100610     
  0.383435579431209     
  6.621416286039075E-002
  7.095978681896073E-002
  0.712010815986146     
  0.711436019257625     
  0.265851396020751     
  0.261574604744495     
  0.395118301606428     
  0.398336499063838     
  0.696835393281713     
  0.696052335032313     
  0.251069282721752     
  0.246714754683831     
  8.592480101279139E-002
  8.117562927092392E-002
  0.410130287524954     
  0.413257197165460     
  0.236241318720885     
  0.231849209142839     
  0.681659518821356     
  0.680685494257895     
  0.100879379365350     
  9.620179419594904E-002
  0.425174461359365     
  0.428204549851048     
  0.221367513115790     
  0.216943067780748     
  0.666573894795766     
  0.665424072218225     
  0.115862751749130     
  0.111267824454220     
  0.206435021361521     
  0.201972300782386     
  0.440242778267191     
  0.443171608479910     
  0.130906391156671     
  0.126363414401355     
  0.651558816538715     
  0.650245657916151     
  0.191426667338138     
  0.186926126161973     
  0.146021274751588     
  0.141490888798573     
  0.176335157047078     
  0.171808224234241     
  0.455291235317660     
  0.458114952058635     
  0.161182523746927     
  0.156648208272674     
  0.636568965021398     
  0.635102454061289     
  0.470255860964675     
  0.472972641988278     
  0.621571348175218     
  0.619960575381694     
 -0.102134649183259     
 -9.704736516266046E-002
 -0.337515265072237     
  0.487730090486308     
  0.485118298336152     
 -0.269420660421448     
 -0.261664496456168     
  0.606569959527075     
  0.604823992197889     
  0.499920963240955     
  0.502431535234305     
  0.589720941342566     
  0.591593681392603     
  0.514721744750324     
  0.517133655056851     
  0.574642379194346     
  0.576636210986960     
  0.529572006817811     
  0.531886277402389     
  0.559561486507584     
  0.561669838180244     
  0.546731904831737     
  0.544517446879929     
 -3.392874244376846E-002
 -2.940245536558175E-002
 -0.335847776436775     
 -0.331490756390684     
 -0.301333986617097     
 -0.139529299642513     
 -0.145080941218232     
 -0.182176979516291     
 -0.175947709425360     
 -0.203153618354645     
 -0.210143390935682     
 -0.333385857553787     
 -0.340780111406680     
 -8.682245621815697E-002
 -8.179110377379192E-002
 -1.887008468681691E-002
 -1.433420601320215E-002
 -0.343021255051167     
 -0.304056192208340     
  0.741532109387951     
  0.741397221644863     
 -0.344545717919363     
 -0.344173046223912     
 -0.127639168196269     
 -0.133409121427728     
  1.226660761665356E-003
 -0.276390636667042     
 -3.357120425967055E-003
 -0.345997051559005     
  0.739941126559959     
 -0.285399137933853     
 -0.167171183405717     
 -0.161014664844843     
 -0.347653056589072     
 -7.198990895895274E-002
 -6.688038122523157E-002
  1.694919393595173E-002
  1.224130770558495E-002
 -0.316169206063115     
 -0.115808200443574     
 -0.110066794109850     
  0.740373828113844     
 -0.238843834812516     
 -0.231138330161937     
 -5.813100430673965E-002
 -5.306677553034983E-002
 -0.318657545698070     
 -0.193257340038295     
 -0.186179696218848     
  2.760054123283276E-002
  0.313756403497242     
  0.318325369131054     
  0.328188618316252     
  0.332603924903656     
  3.261477030946275E-002
  0.304176453960068     
  0.299327856677051     
  0.347223862529503     
  0.342882570818563     
  4.256661332755479E-002
  4.809021029869840E-002
 -0.216068620266257     
 -0.223808068032804     
 -0.245429228849929     
 -0.253321659843774     
  0.289846799455101     
  0.284628375485963     
  0.362082732378875     
  0.357792483395117     
  6.334611535701756E-002
  5.737932330365658E-002
  0.756742050121197     
  0.269744081756812     
  0.275285041979237     
  0.372798851058450     
  0.377028940600837     
 -0.348926808200583     
  0.757406202594797     
  0.724319434629048     
  0.723561405948772     
  7.844805093097496E-002
  7.235411003344319E-002
  0.254886052588049     
  0.260580511057243     
  0.387855420333065     
  0.392006104761834     
  0.708419706937412     
  0.707349973568184     
  0.245786042442654     
  0.240077636079657     
  0.407009778317444     
  0.402955338310368     
 -4.439617641302603E-002
 -3.939606988234898E-002
  8.751239785689389E-002
  9.348984417655613E-002
  0.691322753680188     
  0.692672253524356     
  0.225216248374748     
  0.230914184779800     
  0.422063181684035     
  0.418116152877366     
  0.102761343659876     
  0.108556620272601     
  0.675590379606875     
  0.677187547678562     
  0.210230175763918     
  0.215948310933357     
  0.118061596608561     
  0.123726405439311     
  0.433356908439472     
  0.437189687404194     
 -0.289790437946595     
  0.661917205748690     
  0.660097952979271     
  0.195094490100052     
  0.200848493771545     
  0.139060088997425     
  0.133412915153179     
 -0.150700098002026     
 -0.144168308164142     
  0.179788439109081     
  0.185568879134267     
  0.154555114913552     
  0.148841734982668     
  0.448649610735400     
  0.452362010561796     
  0.164334987528459     
  0.170107582231542     
  0.646745388442452     
  0.644722811760151     
  0.467413977502291     
  0.463829118194753     
  0.629357421540974     
  0.631568023813058     
 -0.353061296945383     
  0.482197671445836     
  0.478738423850197     
  0.613950661195003     
  0.616334176578963     
  0.493445799366672     
  0.496790780620814     
  0.601121271060269     
  0.598583175520183     
 -0.260306803107787     
 -0.268706651817368     
  0.508098691174534     
  0.511338663766262     
  0.586026471786006     
  0.583346159144341     
  0.525941840529945     
  0.522801155579383     
  0.568095234346201     
  0.570913490006889     
  0.540699354024371     
  0.537656338254413     
  0.552781971337488     
  0.555721961260833     
  0.756883949560962     
 -0.347353769559939     
 -0.349961982257927     
 -0.300375904386515     
 -2.465037896684139E-002
 -2.961163577101555E-002
 -9.294212514871616E-002
 -9.878640622620184E-002
 -0.331564681684940     
 -0.357283910576797     
 -0.334352959106010     
 -0.173106497800846     
 -0.165962294070793     
 -0.199102974540752     
 -0.206977875441267     
 -0.355671546103593     
 -8.673158253829104E-003
 -1.364728994648733E-002
  0.754878249423909     
  0.755234585668785     
 -0.303653924222064     
 -0.361352264176334     
 -7.719707783773423E-002
 -8.298278547934093E-002
 -0.359414181921514     
  7.658971486618014E-003
 -0.284527884817582     
 -0.122561624204495     
 -0.129267562820532     
  2.623984564527082E-003
 -0.362284716239799     
 -0.359555693822007     
 -0.275243814113813     
  0.737051415361100     
 -0.364930080984799     
 -6.215239392196690E-002
 -6.780632960293279E-002
 -0.230782819219291     
 -0.239226407531393     
  1.877345783063997E-002
  2.397617699508192E-002
 -0.315320479209653     
 -0.347952922444061     
  0.737862284420191     
 -0.351370578501722     
  0.321015030810942     
  0.326276308139857     
  0.307281314084947     
  0.312812814912679     
  3.406901155967246E-002
  0.773011392458134     
  4.001823929140629E-002
  0.335324249539046     
  0.340518718773640     
  0.299096441712198     
  0.292999280964564     
  0.355439879000918     
  0.350256086912447     
  0.773078486536023     
  4.849214403715346E-002
  5.561886737129245E-002
 -5.458339407834613E-002
 -4.913607064854253E-002
  0.284742422327237     
  0.277961092325005     
  0.370482905469493     
  0.365325649854547     
  0.774103157553459     
 -0.318262731038767     
  7.087008231255909E-002
  6.321628807195642E-002
 -0.364162315546772     
  0.262944633943270     
  0.270126376729365     
  0.380454179930654     
  0.385544883385023     
  0.720763384049710     
  0.719514585585193     
  0.248231080153655     
  0.255384277349964     
  7.851839553938282E-002
  8.596742807851772E-002
  0.395618522491983     
  0.400609435079636     
 -0.188798644288680     
 -0.180741350083898     
  0.704062493438493     
  0.702426223068954     
  0.240551362067080     
  0.233537947291884     
 -0.111023994606484     
 -0.104315658022720     
  0.101049962431640     
  9.395944021671271E-002
  0.774144004154104     
  0.415714543768192     
  0.410843280704246     
  0.686004562725552     
  0.687970103911531     
 -0.251568682410133     
 -0.243180447098856     
  0.218624889909758     
  0.225616176747388     
  0.116236941617345     
  0.109466070676244     
  0.430934151933805     
  0.426191335178263     
  0.203490003821647     
  0.210529474071531     
  0.672396220728421     
  0.670145100385827     
  0.125005635374884     
  0.131659241069379     
  0.188111837961738     
  0.195194266452214     
  0.147435338170919     
  0.140628974413719     
  0.179499183602129     
  0.172397826645414     
  0.441727138260984     
  0.446337298824832     
  0.163486248246608     
  0.156458274157718     
  0.657073588080993     
  0.654565653884716     
 -0.367799054651125     
 -0.213609705797861     
 -0.222212022145254     
  0.457416843328891     
  0.461883694956706     
  0.639046826288377     
  0.641791490753585     
  0.472594715184940     
  0.476895846792394     
  0.623416495219611     
  0.626381295004945     
 -0.369314073051752     
  0.487162878314902     
  0.491328406074475     
 -0.364437827024076     
  0.610761133903734     
  0.607597575290136     
 -3.663196302380408E-002
 -4.198901057293825E-002
  0.501615283642988     
  0.505665344009136     
  0.595397715472563     
  0.592078055062778     
  0.516068694119760     
  0.520015144229479     
  0.576962905985731     
  0.580444582695055     
  0.534523411407086     
  0.530673641230843     
  0.561273412150577     
  0.564926032371066     
  0.549334190364142     
  0.545578247778600     
 -0.288817396141149     
 -0.158354180951241     
 -0.150690147055560     
  0.771047814820810     
 -0.258137659646135     
 -0.267001961951626     
 -8.740713166623851E-002
 -9.403743659125707E-002
 -0.299300641853009     
 -1.973046336060535E-002
 -2.498835296744682E-002
 -0.365682548467299     
  0.751894662786230     
 -0.141960778252286     
 -0.134269264481617     
 -0.374284690624769     
 -0.330782560903230     
 -0.334215404905581     
 -0.371822858850208     
  0.770987509579260     
 -0.369824755675090     
 -2.482262243390567E-003
 -7.835453918043115E-003
 -7.222422314043749E-002
 -0.376075046703341     
 -7.856719026679707E-002
  0.752586106394716     
 -0.171263383130607     
 -0.162953412642568     
 -0.203598331688785     
 -0.194732144924115     
 -0.379077121433430     
 -0.302086813504502     
 -0.373283259224047     
 -0.274259070127501     
 -0.283814213061230     
 -0.379966333688012     
 -0.239475182319010     
 -0.230264636012470     
  1.468825047663110E-002
  9.412855588610720E-003
  0.789783547459081     
 -0.115007824671094     
 -0.122743173775093     
 -0.382936171819882     
  0.732890626993809     
 -0.383426253228737     
 -0.351805422271171     
  2.653688886332951E-002
  3.166993316900114E-002
  0.314411293263008     
  0.320340091967596     
  0.327067174681783     
  0.333006855519080     
 -5.466160328537573E-002
  0.302122485891371     
  0.308629501855175     
  4.029047935685540E-002
  0.790370734571582     
 -0.313485772807043     
 -0.347527640575230     
 -6.071455290997740E-002
  0.734183743525209     
  4.790002316341465E-002
  0.342468204295420     
  0.348494366707976     
  0.286622909304928     
  0.294355000841498     
  0.791431041532754     
  5.328001985072568E-002
  0.363753621286439     
  0.357669821461772     
  6.327050299815276E-002
  0.279746162035683     
  0.270779539669277     
  0.372905775635585     
  0.378953603441366     
  6.912641705358777E-002
  7.837484151887321E-002
  0.256020334963486     
  0.265036125718462     
 -0.380395800906993     
 -0.386997561801311     
  0.388144216892797     
  0.394087748615047     
  0.715957028564694     
  0.714127620842766     
  0.241874435570069     
  0.250251226186852     
  0.791810608238396     
  8.479840849432252E-002
  9.340077764913951E-002
  0.403384567581730     
  0.409190274564787     
  0.235386403697098     
  0.227154365765364     
  0.792167007088718     
  0.698755999244179     
  0.696504246958320     
  0.108501560428058     
  0.100562555255493     
 -9.806141565487747E-002
  0.212064531554143     
  0.220395504709848     
 -0.105567475548516     
  0.424378682784596     
  0.418724794478760     
  0.123806076139654     
  0.116314248394473     
  0.682856346846368     
  0.680256084406315     
  0.196749154230325     
  0.205193365709512     
 -0.154729462501675     
 -0.146100646289139     
  0.132027154932112     
  0.139594512241498     
  0.181074468620638     
  0.189529605646565     
  0.147914811563153     
  0.156186618886064     
  0.439823462275330     
  0.434317508409009     
  0.164529932249067     
  0.173090481155668     
 -0.316353476538828     
  0.667437609598625     
  0.664529299880316     
  0.768101750887890     
  0.450376699023511     
  0.455737645607004     
  0.652179371902797     
  0.648985733440283     
  0.467277740060104     
  0.472468246986299     
  0.633331858429520     
  0.636794243810392     
  0.481105343540180     
  0.486001301959419     
 -0.220129620203523     
 -0.210532283555283     
  0.617283117105804     
  0.621005081696179     
 -0.259387690154095     
 -0.250235141234102     
  0.500340689897943     
  0.495445447632739     
  0.604273637576974     
  0.600316773606388     
  0.509442310757099     
  0.514100382132249     
  0.589691816273845     
  0.585682843805009     
  0.523756452227575     
  0.528442472289785     
  0.575636170024380     
  0.571307394168064     
  0.542627608930503     
  0.538160238392820     
  0.557425459309180     
  0.552908946249823     
 -0.184546012536554     
 -0.175427423378274     
 -0.386278457900996     
 -3.251336135951503E-002
 -3.779121144757153E-002
  0.787594707786125     
 -0.287622742681190     
 -0.384898222531861     
  0.768469230653009     
 -7.990469859412611E-002
 -8.738609952442854E-002
 -0.370981608776679     
  0.788073110663288     
 -0.365922856295059     
 -0.328558528931990     
 -0.298098478961390     
 -1.374576006778330E-002
 -0.392012894025996     
 -1.921694072245769E-002
  0.747907923416380     
 -0.135975187431285     
 -0.127140740401727     
 -0.390079835614299     
 -0.388103634262747     
 -0.332891426072351     
 -0.389733071031728     
 -0.394343103534670     
 -1.364024074805065E-003
  4.589974715776257E-003
 -0.398101894652976     
  0.749066996092058     
  0.806844247374826     
 -0.399201870347133     
 -0.239645434792500     
 -0.229595918479042     
 -0.297557000188774     
 -0.168009524998065     
 -0.158753835003499     
 -0.198869609228477     
 -0.188839063771002     
 -0.402925777390304     
 -0.103811042580660     
 -0.112690978114393     
 -0.275184868775710     
 -0.285117030415754     
  2.240438150758994E-002
 -0.391680064477181     
  1.757199506567836E-002
  0.785426436582029     
 -0.403333780559882     
  0.727248520423048     
  0.808378817737235     
  3.893278263188361E-002
  4.073744131374930E-002
  0.809187648731652     
  0.314510014832270     
  0.320931761518254     
  0.334592548810119     
  0.341406941189182     
  0.296839545611186     
  0.304204091964156     
 -0.351296069347319     
  5.581240706259421E-002
  0.349809813923294     
  0.356746026058024     
  0.729152895171746     
  0.278968044913434     
  0.289694826601255     
 -0.385892507686600     
 -0.345937845697329     
  7.079908559388405E-002
  0.372294411759459     
  0.365159377225516     
  0.274524048065008     
  0.262095998931713     
  5.945416041954339E-002
  0.810364418025665     
  7.532623130172715E-002
  8.572008558249894E-002
  0.250134428535144     
  0.260200716339098     
 -0.308642392465234     
  0.380585236798324     
  0.387435901047021     
  0.810767335645783     
  0.236104020097254     
  0.244973492748262     
  0.100597033307277     
  9.113644953367872E-002
  0.395821909633910     
  0.402664549606401     
  0.709042347322374     
  0.706529523039530     
 -0.407585085311862     
  0.230557081957045     
  0.220649914764082     
  0.811197800619861     
  0.785318253547291     
 -4.381909009311155E-002
  0.115753360238721     
  0.107544632594285     
  0.417557536990045     
  0.411064200383837     
  0.692804669205577     
  0.689973287200659     
  0.205639284781314     
  0.215110238782881     
  0.123129704587489     
  0.130954834545885     
 -0.398785646701440     
 -0.256187977055487     
 -0.246619922345000     
  0.190023899951120     
  0.200406381644093     
 -4.924238709024154E-002
  0.139028377026190     
  0.147418799972435     
  0.183777637898532     
  0.174530360682839     
  0.432925004587082     
  0.426463868211517     
  0.154685551204467     
  0.166019383251231     
  0.677875836476098     
  0.674620507152910     
  0.448505085740168     
  0.442346252794256     
  0.662298319063301     
  0.658796112069120     
  0.459109357048652     
  0.465290760428869     
  0.647693281958354     
  0.643795348908547     
 -6.127984423381640E-002
  0.483008435703345     
  0.488888917043992     
  0.627575709834465     
  0.631691634771488     
  0.616076797108875     
  0.611538120490026     
  0.510298615188290     
  0.515956433152357     
  0.592636026843495     
  0.587767708744992     
 -6.850514317372453E-002
 -0.152783619556958     
 -0.142795007167423     
  0.543329464206753     
  0.537867754408738     
  0.568597382749170     
  0.563257311531295     
  0.804496357310650     
  0.764789461651336     
 -0.312852409071955     
  0.805636606061789     
 -0.411072479053726     
 -0.405558972707624     
 -0.402433886846457     
 -2.680713949916485E-002
 -3.073158282666526E-002
 -0.176679774461880     