 TITLE="euler solver on unstructured grid" 
 VARIABLES= "X" "Y"  "P" "Rou" "U"  "V"  "nuT"
 ZONE NODES=        5306  ELEMENTS=       10382  ZONETYPE=FETRIANGLE
 DATAPACKING=BLOCK
 VARLOCATION=([3-7]=CELLCENTERED)
 -0.272879686786774     
 -0.265337847564468     
 -0.257518151067552     
 -0.249652115339261     
 -0.241761707728229     
 -0.233855477689059     
 -0.225937818691479     
 -0.218011343068839     
 -0.207431481101392     
 -0.196842614643920     
 -0.186244555399835     
 -0.175639549723884     
 -0.165029576800360     
 -0.154413349965243     
 -0.143792432804336     
 -0.133168329532232     
 -0.122539397257634     
 -0.111906962081497     
 -0.101272320419170     
 -9.063368095132474E-002
 -7.999225103649091E-002
 -6.934923803319759E-002
 -5.870276156529926E-002
 -4.387059559741548E-002
 -2.903430333026132E-002
 -1.419421130550562E-002
  6.504128656804810E-004
  1.549736226548266E-002
  3.034736928272981E-002
  4.520028548939063E-002
  6.005593277182752E-002
  7.491413301640294E-002
  8.977476748069177E-002
  0.104638657610342     
  0.119503715229964     
  0.134370821156418     
  0.149239856647279     
  0.164110762331334     
  0.178983389780553     
  0.193857679623722     
  0.208734542363309     
  0.223611949195135     
  0.238490780936063     
  0.253370978214878     
  0.268252511345975     
  0.283135320958142     
  0.298019317994559     
  0.312905502014512     
  0.327791814528217     
  0.342679195723748     
  0.357567645601104     
  0.372457104789073     
  0.387347543602049     
  0.402238962040031     
  0.417132329976699     
  0.432025618607876     
  0.446919827492847     
  0.461814926946006     
  0.476710887281746     
  0.491607738185675     
  0.506505479657791     
  0.521405081571774     
  0.536304544809053     
  0.551204898614520     
  0.566106113302569     
  0.581008248244412     
  0.595911244068837     
  0.610815189832662     
  0.625721055409566     
  0.640626841680979     
  0.655533637263005     
  0.670441412470038     
  0.685350196987683     
  0.700260050187154     
  0.715170972068451     
  0.726679598488926     
  0.715340298766568     
  0.700550316045183     
  0.685759264641971     
  0.670967144556935     
  0.656174015161285     
  0.641379906140629     
  0.626584787809360     
  0.611787749665012     
  0.596990790826155     
  0.582192882047897     
  0.567394112387058     
  0.552594422472425     
  0.537793871675210     
  0.522992430309807     
  0.508189128502537     
  0.493385965371971     
  0.478581911673217     
  0.463776967406276     
  0.448971162256752     
  0.434164466539041     
  0.419356850567536     
  0.404547314782952     
  0.389737828618252     
  0.374927362828545     
  0.360115917413832     
  0.345303462688506     
  0.330489939281355     
  0.315675347192378     
  0.300858627491078     
  0.286041719924813     
  0.271223624934297     
  0.256404253462713     
  0.241583546138846     
  0.226761473277091     
  0.211937975506236     
  0.197111934524569     
  0.182285319765057     
  0.167457042611593     
  0.152627043692967     
  0.137795174581145     
  0.122961375904917     
  0.108125528921857     
  9.328651533025428E-002
  7.844624519186107E-002
  6.360354083375433E-002
  4.875828351350908E-002
  3.391029511748773E-002
  1.905939753205273E-002
  4.205442329172754E-003
 -1.065283722089379E-002
 -2.551364979882025E-002
 -4.037826213434820E-002
 -5.524700076914656E-002
 -6.592512209332002E-002
 -7.660470776352790E-002
 -8.728787564076587E-002
 -9.797383396499246E-002
 -0.108661790976166     
 -0.119353953592101     
 -0.130049619109576     
 -0.140748114510972     
 -0.151451795142137     
 -0.162160166099091     
 -0.172872791849069     
 -0.183592383965190     
 -0.194318922513177     
 -0.205052654729206     
 -0.215797390553831     
 -0.223863863495602     
 -0.231939153062433     
 -0.240025871587674     
 -0.248128412541054     
 -0.256255325377174     
 -0.264428577444668     
  -10.5653286021621     
  -9.56576931688642     
  -8.56621003161072     
  -7.56665074633502     
  -6.56709146105932     
  -5.56753217578362     
  -4.56797289050792     
  -3.56841360523222     
  -2.56885431995652     
  -1.56929503468082     
 -0.569735749405121     
  0.429823535870579     
   1.42938282114628     
   2.42894210642198     
   3.42850139169768     
   4.42806067697338     
   5.42761996224908     
   6.42717924752478     
   7.42673853280048     
   8.42629781807618     
   9.42585710335188     
   9.45554270961371     
   9.48522831587554     
   9.51491392213738     
   9.54459952839921     
   9.57428513466105     
   9.60397074092288     
   9.63365634718472     
   9.66334195344655     
   9.69302755970839     
   9.72271316597022     
   9.75239877223206     
   9.78208437849389     
   9.81176998475573     
   9.84145559101756     
   9.87114119727939     
   9.90082680354123     
   9.93051240980306     
   9.96019801606490     
   9.98988362232673     
   10.0195692285886     
   9.02000994331287     
   8.02045065803717     
   7.02089137276147     
   6.02133208748577     
   5.02177280221007     
   4.02221351693437     
   3.02265423165867     
   2.02309494638297     
   1.02353566110727     
  2.397637583157269E-002
 -0.975582909444127     
  -1.97514219471983     
  -2.97470147999553     
  -3.97426076527123     
  -4.97382005054692     
  -5.97337933582262     
  -6.97293862109832     
  -7.97249790637402     
  -8.97205719164972     
  -9.97161647692542     
  -10.0013020831873     
  -10.0309876894491     
  -10.0606732957109     
  -10.0903589019728     
  -10.1200445082346     
  -10.1497301144964     
  -10.1794157207583     
  -10.2091013270201     
  -10.2387869332819     
  -10.2684725395438     
  -10.2981581458056     
  -10.3278437520674     
  -10.3575293583293     
  -10.3872149645911     
  -10.4169005708529     
  -10.4465861771148     
  -10.4762717833766     
  -10.5059573896384     
  -10.5356429959003     
 -0.222776561991331     
 -0.220320467471315     
 -0.213698915306435     
 -0.211053842956996     
 -0.229084157237837     
 -0.231345002497967     
 -0.219563381202856     
 -0.216696936028731     
 -0.200974203266219     
 -0.203804710182598     
 -0.238125362890339     
 -0.240165795359689     
 -0.228056566579303     
 -0.225408220368481     
 -0.210563450247570     
 -0.207465051166384     
 -0.249290906251912     
 -0.247467672585997     
 -0.190566081745979     
 -0.193562521761811     
 -0.237227210323828     
 -0.234827131525417     
 -0.275655790885533     
 -0.275380473393780     
 -0.256762979331406     
 -0.258470939688225     
 -0.217497302494388     
 -0.214206510083411     
 -0.200691234823736     
 -0.197375340279584     
 -0.224702958215616     
 -0.221695387159777     
 -0.282575536573738     
 -0.282297179612444     
 -0.180136059763163     
 -0.183275237589572     
 -0.267298753045820     
 -0.265731244748936     
 -0.283546754686820     
 -0.282340525624496     
 -0.245383838435003     
 -0.247459816756823     
 -0.289419319572148     
 -0.208047079779609     
 -0.204456059008142     
 -0.274800865330904     
 -0.273998818981630     
 -0.169834910355690     
 -0.173106063035701     
 -0.291559941335075     
 -0.190484684622382     
 -0.186990373412381     
 -0.232632437206125     
 -0.229789063099399     
 -0.291092183661874     
 -0.225667390941182     
 -0.222339998708784     
 -0.159495282463699     
 -0.162901648981491     
 -0.256350080504056     
 -0.258176919165390     
 -0.291584603578480     
 -0.216325009046696     
 -0.212545408554788     
 -0.292689110691121     
 -0.197616840765409     
 -0.193779196400197     
 -0.148842850782010     
 -0.152380583580875     
 -0.180589148617892     
 -0.176955275205825     
 -0.283884641526103     
 -0.266608022693464     
 -0.268827401662292     
 -0.243603764339928     
 -0.241130818240016     
 -0.299454244042064     
 -0.279572817459153     
 -0.137881084910560     
 -0.141533108916100     
 -0.301300423413366     
 -0.301519346772124     
 -0.275482673173371     
 -0.205484082626880     
 -0.201332869450819     
 -0.171183114139941     
 -0.167389930763752     
 -0.130533774039263     
 -0.126787274728547     
 -0.226297815425855     
 -0.222471646671703     
 -0.187118276037725     
 -0.183117277059619     
 -0.292665733385598     
 -0.236405047170697     
 -0.233282781426634     
 -0.115713021786840     
 -0.119536245773780     
 -0.256186228449459     
 -0.254351699363570     
 -0.157297836528831     
 -0.161285659580360     
 -0.302836077581903     
 -0.292191369657857     
 -0.302788254733743     
 -0.104746402705546     
 -0.108638186394671     
 -0.214818016677898     
 -0.210423416256890     
 -0.189381711986777     
 -0.193787890093886     
 -0.146194733847330     
 -0.150354003339514     
 -0.302435168378034     
 -0.178326007872251     
 -0.174258719656412     
 -9.382767298150321E-002
 -9.778722250745767E-002
 -0.283991435736887     
 -0.311461588020468     
 -0.268711404846083     
 -0.267462875308072     
 -0.309596946407949     
 -0.311163453245254     
 -0.305017038015514     
 -0.134682696652941     
 -0.138975205605554     
 -0.280611168606899     
 -8.313835472939382E-002
 -8.715165200539157E-002
 -0.312816123959184     
 -0.314379828880609     
 -0.166502766925258     
 -0.170860646108476     
 -7.268799848342901E-002
 -7.679207560472395E-002
 -0.197381358008005     
 -0.202188011661210     
 -0.315536045636667     
 -0.123068450641842     
 -0.127465233462862     
 -0.277778338700421     
 -0.251564486128994     
 -0.249089907565558     
 -0.225905646635982     
 -0.221372556904564     
 -0.181837028540936     
 -0.177328630236942     
 -0.290026336245339     
 -6.152505706246592E-002
 -6.577292399666054E-002
 -0.238497472609357     
 -0.234816203921983     
 -0.116158455828247     
 -0.111691809830353     
 -0.155377225482336     
 -0.160017266931784     
 -0.293329961992525     
 -5.301059427411926E-002
 -4.862154453548775E-002
 -0.319031258019338     
 -0.314382606292216     
 -0.100647229154825     
 -0.105201584703847     
 -0.322527784191873     
 -0.212553036253952     
 -0.207399800222684     
 -0.143114495223724     
 -0.147931591044588     
 -3.887718580431030E-002
 -3.435995750705011E-002
 -0.300139030531874     
 -0.183335501340349     
 -0.188385904953568     
 -0.324475002680232     
 -0.267442738973002     
 -0.266614784959851     
 -8.921429187530321E-002
 -9.386879328624849E-002
 -0.306938535767787     
 -2.420749780496667E-002
 -1.958651794924127E-002
 -0.325818030795514     
 -0.136051419248797     
 -0.131090853987850     
 -7.925368645252509E-002
 -8.388606513306934E-002
 -0.330429984500787     
 -0.280856967117596     
 -0.327758922103763     
 -0.172475198873266     
 -0.167375511764639     
 -0.282971194209879     
 -9.205773108048824E-003
 -4.523246593168120E-003
 -6.973187051066190E-002
 -7.466012337181649E-002
 -0.123572682608989     
 -0.118497817337929     
 -0.197969474801919     
 -0.192393587914466     
  5.978997377635903E-003
  1.066007609649746E-002
 -0.313292742263394     
 -0.233890961032987     
 -0.238466252467139     
 -0.224616305436698     
 -0.219190078131396     
 -5.699521428833229E-002
 -6.219411628119244E-002
 -0.252149948825822     
 -0.248730332125331     
 -0.321591824745512     
  2.580456556745168E-002
  2.121453243538706E-002
  0.320753295492333     
  0.324238591322839     
 -0.107541480338629     
 -0.112591352540137     
  0.335453518622545     
  0.338912717035784     
  0.306146090117030     
  0.309622801867539     
  3.641100752399748E-002
  4.081288801900801E-002
  0.725813702496577     
  0.727112082255039     
 -0.151805780758200     
 -0.157177457403379     
 -0.294143973694700     
 -4.328845129505648E-002
 -4.872914035636165E-002
  0.350281500142732     
  0.353687863588037     
  0.291524944863772     
  0.294962572177136     
 -0.334404026113127     
  5.152387525564715E-002
  5.570784369770779E-002
  0.368534771886856     
  0.365195906511611     
 -0.328006348396547     
  0.276816152344678     
  0.280211394509178     
  0.383418685004452     
  0.380151398322347     
  7.059862293930426E-002
  6.655445414603982E-002
  0.710935617533458     
  0.712441849563782     
  0.262021216558527     
  0.265415029219437     
  0.398326024709321     
  0.395129274021816     
  0.695608249862485     
  0.697227333681559     
  0.247167447142540     
  0.250620093300438     
  8.153478569247277E-002
  8.555403830290448E-002
  0.413257643064687     
  0.410130164092653     
  0.232270175945070     
  0.235817852797595     
  0.680302804572154     
  0.682001270486962     
  9.650636750954558E-002
  0.100567076296255     
  0.428217633344792     
  0.425161187160839     
  0.217329193173445     
  0.220974040595624     
  0.665098062640192     
  0.666866853028755     
  0.111508535711261     
  0.115612791490500     
  0.202331754934344     
  0.206063905283567     
  0.443196643331957     
  0.440216702054777     
  0.126573993611286     
  0.130681901765632     
  0.649968527805901     
  0.651808734097834     
  0.187261655431646     
  0.191075434424963     
  0.141716362735430     
  0.145777282051931     
  0.172114002589325     
  0.176010338299192     
  0.458149510844176     
  0.455254571814711     
  0.156914154293513     
  0.160896171242717     
  0.634866952723607     
  0.636781761134034     
  0.473014069101538     
  0.470211184014871     
  0.619760759647997     
  0.621752049077585     
 -9.693521226385236E-002
 -0.102237361293516     
 -0.337820591932397     
  0.485067324688924     
  0.487776705941102     
 -0.264610960210017     
 -0.266442208444529     
  0.604655355993703     
  0.606722420529294     
  0.502482978277112     
  0.499864107618343     
  0.591721816143435     
  0.589579032300219     
  0.517191147523362     
  0.514657803072060     
  0.576743895945717     
  0.574522888718864     
  0.531951802321960     
  0.529498942184912     
  0.561760699079524     
  0.559460463559298     
  0.544431991347936     
  0.546808598819540     
 -2.884018344100336E-002
 -3.450221308269209E-002
 -0.335355637375833     
 -0.327647754253337     
 -0.297503366087588     
 -0.145020778861252     
 -0.139580574830716     
 -0.176148399803635     
 -0.181961723782319     
 -0.209657131694293     
 -0.203610520017621     
 -0.337362739358139     
 -0.342041086765584     
 -8.156623329044839E-002
 -8.703775785827333E-002
 -1.370057142076405E-002
 -1.952795016926705E-002
 -0.341744615722968     
 -0.308266014912234     
  0.740962865432767     
  0.741792900026406     
 -0.346793681359742     
 -0.341881831515118     
 -0.133375689642253     
 -0.127662440519289     
 -4.032646764398389E-003
 -0.280693885766003     
  1.862439320928674E-003
 -0.342732574275307     
  0.741317347750686     
 -0.281090265064858     
 -0.161150157669596     
 -0.167024028112036     
 -0.350921224392109     
 -6.646291700446023E-002
 -7.239838694515972E-002
  1.165333977640725E-002
  1.748001437636863E-002
 -0.311801472020355     
 -0.110008806201549     
 -0.115854409268429     
  0.738796998151194     
 -0.232145829670624     
 -0.237776942451335     
 -5.245508811009290E-002
 -5.873836897425483E-002
 -0.323277163768723     
 -0.186476175824655     
 -0.192940121439979     
  3.283411725468045E-002
  0.318161516142071     
  0.313945174422480     
  0.332538492080022     
  0.328269862128520     
  2.730721095915898E-002
  0.299727060206078     
  0.303812144125264     
  0.342930652520262     
  0.347185326665667     
  4.779271844494298E-002
  4.278823927841492E-002
 -0.223143415465350     
 -0.216688036053740     
 -0.251638383628674     
 -0.247040236440061     
  0.285312193303001     
  0.289202778030885     
  0.357841335900093     
  0.362040387822909     
  5.805741886416179E-002
  6.261366533173196E-002
  0.757676327255912     
  0.274398354125300     
  0.270663627575086     
  0.376982680492453     
  0.372851041112550     
 -0.348569778599137     
  0.757266221353846     
  0.722474807182687     
  0.725263231345015     
  7.317350549066301E-002
  7.760120774533862E-002
  0.259609007548776     
  0.255874768079278     
  0.391968306037660     
  0.387899588035376     
  0.706380845912767     
  0.709282782366064     
  0.240998533061617     
  0.244867800249706     
  0.402979016075993     
  0.406992730646370     
 -3.858190700507922E-002
 -4.521631033480832E-002
  9.276185577441830E-002
  8.822778186666586E-002
  0.693427574508081     
  0.690486024146552     
  0.230076018046712     
  0.226046560031119     
  0.418111681776253     
  0.422073791977403     
  0.108001329309637     
  0.103305047260584     
  0.677836767125135     
  0.674877097425946     
  0.215160232053102     
  0.211001488378416     
  0.123282821623295     
  0.118484611165825     
  0.437228422321752     
  0.433322998536133     
 -0.294538950157405     
  0.659490845192781     
  0.662472961580580     
  0.200093786819612     
  0.195823681103425     
  0.133831142815745     
  0.138608782925691     
 -0.144276600724360     
 -0.150580197777886     
  0.184853244359515     
  0.180470041167203     
  0.149350025401702     
  0.154005554084986     
  0.452424427266884     
  0.448590088995239     
  0.169456002354822     
  0.164945877590256     
  0.644205589834629     
  0.647220950705857     
  0.463750483926023     
  0.467493282351408     
  0.631974567350873     
  0.628916893267276     
 -0.353604495666855     
  0.478645997380663     
  0.482288565230781     
  0.616679768228275     
  0.613577346436019     
  0.496891384760170     
  0.493341633298145     
  0.598269673869932     
  0.601412222314684     
 -0.266069381850725     
 -0.262860741436660     
  0.511450168494862     
  0.507981702383675     
  0.583083401994488     
  0.586270879481111     
  0.522667800359027     
  0.526067765234513     
  0.571120071192931     
  0.567873712109757     
  0.537500602519534     
  0.540845533388699     
  0.555895820840985     
  0.552596071221497     
  0.755665546626346     
 -0.343045993661320     
 -0.354302242329577     
 -0.295516257182794     
 -3.063282069102163E-002
 -2.365313926747930E-002
 -9.897785019482731E-002
 -9.273591537690699E-002
 -0.326676282885758     
 -0.358781781583608     
 -0.339396138031152     
 -0.166168568693296     
 -0.172885936873371     
 -0.206552290712469     
 -0.199498235247746     
 -0.353861374262821     
 -1.477179467966348E-002
 -7.595770390901946E-003
  0.756909202075436     
  0.752912891516199     
 -0.308846720509100     
 -0.363856223980748     
 -8.339699817327767E-002
 -7.676685339257844E-002
 -0.356786094330381     
  1.491560415008081E-003
 -0.279174402110840     
 -0.129220373924442     
 -0.122594718096080     
  8.719647647729287E-003
 -0.358626613700953     
 -0.358509022369058     
 -0.280505922118171     
  0.739466850926322     
 -0.368498014341186     
 -6.854184910363771E-002
 -6.140240665529038E-002
 -0.238359709775159     
 -0.231578540517870     
  2.486562403570170E-002
  1.778037958135801E-002
 -0.309914483005520     
 -0.342537238636877     
  0.735227419761645     
 -0.356845574588409     
  0.326186539278786     
  0.321136088508854     
  0.312513671299419     
  0.307629433968951     
  4.011794286212799E-002
  0.771077738578130     
  3.382728716564439E-002
  0.340484155964318     
  0.335377605393074     
  0.293808688674873     
  0.298356400397795     
  0.350325264398465     
  0.355382740925035     
  0.774629523700090     
  5.454218596646344E-002
  4.944866537886989E-002
 -4.815444070723966E-002
 -5.555907387830397E-002
  0.279350147374212     
  0.283425893439846     
  0.365419026540967     
  0.370400421256498     
  0.773330662317851     
 -0.323929611305682     
  6.471855614189791E-002
  6.931510357555015E-002
 -0.363983491450411     
  0.268478917296004     
  0.264635680848743     
  0.385464242566929     
  0.380547269388031     
  0.717894757008596     
  0.722216534068775     
  0.253827147192942     
  0.249799592379737     
  8.464287920235733E-002
  7.982823087565726E-002
  0.400558001597144     
  0.395683954623305     
 -0.181036897394398     
 -0.188484313061693     
  0.701031560317303     
  0.705328687371930     
  0.234874605344627     
  0.239209380917638     
 -0.104208210459329     
 -0.111113150514714     
  9.491630869138634E-002
  0.100088329234503     
  0.774529414453272     
  0.410862651922974     
  0.415709282999044     
  0.689055992975996     
  0.684817858453445     
 -0.244447713447881     
 -0.250214122309380     
  0.224375945069161     
  0.219847177350447     
  0.110102630767106     
  0.115583486220689     
  0.426158758631564     
  0.430979346018633     
  0.209321936085707     
  0.204666594229897     
  0.669132426924951     
  0.673328354548043     
  0.131103454636480     
  0.125520414434410     
  0.194024820416402     
  0.189236129304903     
  0.141295501695937     
  0.146703363330449     
  0.173449867494051     
  0.178387430344909     
  0.446427264998132     
  0.441646992879886     
  0.157370815144359     
  0.162502108632692     
  0.653697522612665     
  0.657876642281933     
 -0.372499082279256     
 -0.221694653513508     
 -0.214081306940520     
  0.462007278796886     
  0.457299518516431     
  0.642484655232141     
  0.638300840229014     
  0.477038257161095     
  0.472454872562657     
  0.626978059532856     
  0.622776971282970     
 -0.370038458464798     
  0.491485158524769     
  0.487005447557139     
 -0.359668730550946     
  0.607055289666256     
  0.611269174806889     
 -4.336630649307990E-002
 -3.526512524101294E-002
  0.505836582697817     
  0.501440465041787     
  0.591626353601106     
  0.595822310918120     
  0.520205452446269     
  0.515871957542140     
  0.580805402143805     
  0.576580487237402     
  0.530447599401569     
  0.534740097578722     
  0.565235207083934     
  0.560947264598446     
  0.545310215854022     
  0.549589468203454     
 -0.294524452623712     
 -0.150890350931264     
 -0.158141511574095     
  0.767939347820166     
 -0.264917417243206     
 -0.260106027938975     
 -9.436839486832073E-002
 -8.705271045364049E-002
 -0.293422664751590     
 -2.665841164627193E-002
 -1.810697310213964E-002
 -0.359729804014743     
  0.755060964634125     
 -0.134426485395109     
 -0.141789587596199     
 -0.375982544537675     
 -0.324802863008178     
 -0.340385550049083     
 -0.370014526309262     
  0.773722046206874     
 -0.375729388773500     
 -9.524472756515081E-003
 -8.720325354715907E-004
 -7.924257570139996E-002
 -0.373140881706694     
 -7.152451958378055E-002
  0.749126116671141     
 -0.163224240517728     
 -0.170979914386762     
 -0.195084491692560     
 -0.203221010121875     
 -0.381810568382966     
 -0.308280344442984     
 -0.372431249067245     
 -0.280517856709057     
 -0.277411605657996     
 -0.375926316668300     
 -0.230747959979371     
 -0.238920132255363     
  7.593215393008208E-003
  1.640123486182793E-002
  0.787080483964242     
 -0.122667127638352     
 -0.115064261547650     
 -0.377704136777391     
  0.736398711862805     
 -0.387276734997799     
 -0.358486335299045     
  3.346522047863433E-002
  2.456864507821064E-002
  0.320276636452968     
  0.314525585535263     
  0.333059874166621     
  0.327045270176012     
 -6.213881246505968E-002
  0.308209097590350     
  0.302628041815735     
  4.703521199508693E-002
  0.792598259156193     
 -0.307036320492757     
 -0.340942020592314     
 -5.321114128443492E-002
  0.730445718673600     
  4.084709693251410E-002
  0.348460760017879     
  0.342517551381209     
  0.292898437523330     
  0.288216610798650     
  0.789949381266552     
  6.020907732069732E-002
  0.357807834240676     
  0.363629128998252     
  5.625086424580473E-002
  0.273492277580143     
  0.277147769502385     
  0.378804846194112     
  0.373072145946426     
  7.611599606911040E-002
  7.137315776171523E-002
  0.262394916290645     
  0.258676260336093     
 -0.380304869046309     
 -0.392048066331145     
  0.393973845235138     
  0.388280583547797     
  0.712033007879900     
  0.717871686322591     
  0.248333064675955     
  0.243788983161711     
  0.792795223521768     
  9.181316232908053E-002
  8.640408160941328E-002
  0.409145936886502     
  0.403453255040255     
  0.228820896136699     
  0.233703506465719     
  0.791914629892025     
  0.694741613597810     
  0.700376893620711     
  0.101498457511886     
  0.107571395000141     
 -0.105705526079298     
  0.218705440346283     
  0.213723586116703     
 -9.789702419350295E-002
  0.418707956979709     
  0.424418667278500     
  0.116784283553199     
  0.123303449116342     
  0.678750499554424     
  0.684247855863553     
  0.203484122000266     
  0.198407677960955     
 -0.146381066410000     
 -0.154437610361527     
  0.138997125074816     
  0.132543733196668     
  0.187910247720436     
  0.182621768727861     
  0.154870513516934     
  0.149102795922900     
  0.434221069588538     
  0.439939475737865     
  0.171468391650513     
  0.166054684540156     
 -0.323124001599643     
  0.663228211358113     
  0.668645801191066     
  0.772048135285818     
  0.455915162692986     
  0.450213598807298     
  0.647855849900966     
  0.653233388182124     
  0.472685112789989     
  0.467069342064732     
  0.637715796424292     
  0.632348464406587     
  0.486219482391051     
  0.480890342296724     
 -0.210869988584507     
 -0.219757148170469     
  0.621805423241402     
  0.616433054152106     
 -0.251328715653556     
 -0.258175096250089     
  0.495192683490494     
  0.500592927741565     
  0.599598824545917     
  0.604952778189047     
  0.514356076328857     
  0.509182065176699     
  0.585107697366142     
  0.590237264373910     
  0.528747846043006     
  0.523442762589881     
  0.570773976939430     
  0.576144989010536     
  0.537820611313136     
  0.542955031811480     
  0.552474954504546     
  0.557842045119624     
 -0.175768464003935     
 -0.184192299915944     
 -0.387146672223430     
 -4.026229878630242E-002
 -3.006264612535831E-002
  0.783671409895042     
 -0.294195067994315     
 -0.378401598867179     
  0.764158415622048     
 -8.794016833505965E-002
 -7.930984482362144E-002
 -0.378166541486688     
  0.791547809406073     
 -0.358717152932568     
 -0.321438663367133     
 -0.291317646240849     
 -2.168211999305329E-002
 -0.393861091445637     
 -1.138184482219478E-002
  0.752260919380929     
 -0.127400049726446     
 -0.135699813408378     
 -0.388940264134683     
 -0.385853911106354     
 -0.340264263143830     
 -0.396058363452116     
 -0.391124136667359     
  6.538218506144697E-003
 -3.414722788581925E-003
 -0.401021924033879     
  0.744420584056506     
  0.803330301628819     
 -0.394779538663678     
 -0.229686492252370     
 -0.239501158036032     
 -0.304794600936777     
 -0.159108241368630     
 -0.167646286980544     
 -0.189236240257453     
 -0.198461208051797     
 -0.397223754456895     
 -0.112543681910344     
 -0.103928657557976     
 -0.282635187542885     
 -0.277474756511639     
  1.436737192547738E-002
 -0.399356305786716     
  2.549528635660901E-002
  0.790156741901426     
 -0.407452219080495     
  0.731907370360252     
  0.811336701842878     
  4.668124799840115E-002
  3.272212905595721E-002
  0.806926781784398     
  0.321329423122686     
  0.314172432296855     
  0.341510615933118     
  0.334501868497007     
  0.303779140641943     
  0.297411643493083     
 -0.359262569449828     
  4.801203938242537E-002
  0.356579762705545     
  0.349985206568881     
  0.724259344663937     
  0.286373751455207     
  0.282625543227455     
 -0.378064865308787     
 -0.338111713596732     
  6.287725830041567E-002
  0.365448139544935     
  0.372024458988546     
  0.267484096323291     
  0.269219282958133     
  6.737363989028573E-002
  0.812015260483897     
  8.315378396787330E-002
  7.795789558738357E-002
  0.257270767060464     
  0.252904965658807     
 -0.301125791740758     
  0.387214352930378     
  0.380837371036264     
  0.809793752402856     
  0.243498068474510     
  0.237713232560421     
  9.267562285881047E-002
  9.912222001753315E-002
  0.402535605393702     
  0.395989549288772     
  0.704045174672940     
  0.711341187537868     
 -0.412977190032619     
  0.223033238019481     
  0.227999163742137     
  0.811533018681822     
  0.780155968237984     
 -5.235393839398625E-002
  0.107961633145731     
  0.115338067364603     
  0.411091779410949     
  0.417566305387888     
  0.687930655965194     
  0.694699049244411     
  0.213239724453029     
  0.207612888548625     
  0.131053559522771     
  0.122962218911463     
 -0.398809883864780     
 -0.246914217165002     
 -0.255783922477729     
  0.197583853963137     
  0.192615899275418     
 -4.064792669992433E-002
  0.146782835587535     
  0.139511105322183     
  0.175973960590001     
  0.182382074101088     
  0.426357337234566     
  0.433065868224670     
  0.162613497616163     
  0.157787218184212     
  0.672757191491589     
  0.679612707443255     
  0.442141054416529     
  0.448735510348815     
  0.657232914623232     
  0.663760269257377     
  0.465612687530020     
  0.458806305351032     
  0.642343044846967     
  0.649058905828583     
 -7.016941022377025E-002
  0.489246451699419     
  0.482657682633764     
  0.632837540285609     
  0.626361765910189     
  0.610409816707779     
  0.617148264347456     
  0.516360626353695     
  0.509890587197689     
  0.586892670368310     
  0.593472384554738     
 -5.952228634968235E-002
 -0.143252500604615     
 -0.152319270434848     
  0.537352067827625     
  0.543831240231423     
  0.562551812442891     
  0.569277431522782     
  0.799754392770334     
  0.769997284007249     
 -0.320820693956162     
  0.809875334797184     
 -0.417804548925726     
 -0.398512834711183     
 -0.403428696056970     
 -3.565978099057872E-002
 -2.193109104965436E-002
 -0.166907667440734     