 TITLE="euler solver on unstructured grid" 
 VARIABLES= "X" "Y"  "P" "Rou" "U"  "V"  "nuT"
 ZONE NODES=        5306  ELEMENTS=       10382  ZONETYPE=FETRIANGLE
 DATAPACKING=BLOCK
 VARLOCATION=([3-7]=CELLCENTERED)
 -0.272758562284240     
 -0.264121677421146     
 -0.255878358719174     
 -0.247700676425055     
 -0.239557515265369     
 -0.231436765512079     
 -0.223332204110502     
 -0.215240130865961     
 -0.204465798328414     
 -0.193706634970181     
 -0.182958077652375     
 -0.172219359488596     
 -0.161490092021448     
 -0.150767267875715     
 -0.140051087261335     
 -0.129341834483577     
 -0.118637006739229     
 -0.107937140619561     
 -9.724281476351242E-002
 -8.655173660620334E-002
 -7.586461092957221E-002
 -6.518214251555730E-002
 -5.450216494227988E-002
 -3.963240302443116E-002
 -2.476848573226580E-002
 -9.909950541449082E-003
  4.944580092625795E-003
  1.979340227241483E-002
  3.463789354252485E-002
  4.947826414128980E-002
  6.431476635471040E-002
  7.914765246878734E-002
  9.397709067418773E-002
  0.108804332372518     
  0.123627505475568     
  0.138447777289608     
  0.153265316005308     
  0.168080205718001     
  0.182892656666019     
  0.197702752944698     
  0.212511619812643     
  0.227317301086309     
  0.242120964071969     
  0.256922692864957     
  0.271722529512940     
  0.286520558111251     
  0.301316904802890     
  0.316112568703464     
  0.330905635677094     
  0.345697188934720     
  0.360487228476342     
  0.375275838397292     
  0.390063060745239     
  0.404848895520182     
  0.419634383885393     
  0.434417569657329     
  0.449199451951594     
  0.463980072815855     
  0.478759474297779     
  0.493537614349700     
  0.508314492971618     
  0.523091151326804     
  0.537865591184048     
  0.552638769611288     
  0.567410728656191     
  0.582181384223424     
  0.596950820408320     
  0.611718911067879     
  0.626486697365373     
  0.641252181069592     
  0.656016235153139     
  0.670778901663682     
  0.685540138553555     
  0.700299861727424     
  0.715058071185288     
  0.726357043498099     
  0.714818231293938     
  0.699888719641585     
  0.684960721705237     
  0.670034237484894     
  0.655109182885221     
  0.640185515858552     
  0.625263278452553     
  0.610341345408620     
  0.595421714957962     
  0.580503430032642     
  0.565586364489658     
  0.550670602424345     
  0.535756059741369     
  0.520842778488396     
  0.505929717502154     
  0.491018875013855     
  0.476109293955560     
  0.461200974327268     
  0.446293874081313     
  0.431388035265361     
  0.416483499927080     
  0.401579268950863     
  0.386677382615590     
  0.371776883853320     
  0.356877772664055     
  0.341980091095460     
  0.327083923242869     
  0.312189269106283     
  0.297295213665428     
  0.282403839246852     
  0.267514146734946     
  0.252626262272712     
  0.237740269955484     
  0.222856211830928     
  0.207974171994378     
  0.193093319520894     
  0.178215694689356     
  0.163340424527159     
  0.148467593129635     
  0.133597410735118     
  0.118729961438943     
  0.103865413431775     
  8.900293578867786E-002
  7.414465288386192E-002
  5.928981788772242E-002
  4.443859899092655E-002
  2.959124847947505E-002
  1.474801863936862E-002
 -9.088029105880054E-005
 -1.492606899841189E-002
 -2.975525491781162E-002
 -4.457905873586265E-002
 -5.939701792823040E-002
 -7.003217268871341E-002
 -8.066283837724735E-002
 -9.129084503437666E-002
 -0.101914899210828     
 -0.112533707457328     
 -0.123148973671421     
 -0.133759278260833     
 -0.144363159585624     
 -0.154962111305004     
 -0.165554419493032     
 -0.176138286128432     
 -0.186714700298415     
 -0.197281275314369     
 -0.207835246058684     
 -0.218376045854898     
 -0.226269822302874     
 -0.234151110593815     
 -0.242016210533043     
 -0.249858899065873     
 -0.257667066464272     
 -0.265409597454817     
  -9.84343795224259     
  -8.84432234646025     
  -7.84520674067791     
  -6.84609113489558     
  -5.84697552911324     
  -4.84785992333090     
  -3.84874431754856     
  -2.84962871176622     
  -1.85051310598388     
 -0.851397500201538     
  0.147718105580801     
   1.14683371136314     
   2.14594931714548     
   3.14506492292782     
   4.14418052871016     
   5.14329613449250     
   6.14241174027484     
   7.14152734605718     
   8.14064295183952     
   9.13975855762186     
   10.1388741634042     
   10.0968264966177     
   10.0547788298312     
   10.0127311630447     
   9.97068349625818     
   9.92863582947168     
   9.88658816268517     
   9.84454049589867     
   9.80249282911216     
   9.76044516232566     
   9.71839749553915     
   9.67634982875265     
   9.63430216196615     
   9.59225449517964     
   9.55020682839314     
   9.50815916160663     
   9.46611149482013     
   9.42406382803362     
   9.38201616124712     
   9.33996849446062     
   9.29792082767411     
   8.29880522189177     
   7.29968961610943     
   6.30057401032709     
   5.30145840454475     
   4.30234279876241     
   3.30322719298008     
   2.30411158719774     
   1.30499598141540     
  0.305880375633057     
 -0.693235230149282     
  -1.69235083593162     
  -2.69146644171396     
  -3.69058204749630     
  -4.68969765327864     
  -5.68881325906098     
  -6.68792886484332     
  -7.68704447062566     
  -8.68616007640800     
  -9.68527568219034     
  -10.6843912879727     
  -10.6423436211862     
  -10.6002959543997     
  -10.5582482876132     
  -10.5162006208267     
  -10.4741529540402     
  -10.4321052872537     
  -10.3900576204671     
  -10.3480099536806     
  -10.3059622868941     
  -10.2639146201076     
  -10.2218669533211     
  -10.1798192865346     
  -10.1377716197481     
  -10.0957239529616     
  -10.0536762861751     
  -10.0116286193886     
  -9.96958095260211     
  -9.92753328581560     
  -9.88548561902910     
 -0.219524065490652     
 -0.223377030115795     
 -0.210274518750891     
 -0.214291316035007     
 -0.231975624637950     
 -0.228248043217821     
 -0.215689737484827     
 -0.220379918204000     
 -0.204403268176831     
 -0.200197953459621     
 -0.240828819217071     
 -0.237245117491161     
 -0.224318662879046     
 -0.228945760351218     
 -0.206492877525020     
 -0.211354152313002     
 -0.246608312191006     
 -0.249919382805315     
 -0.194171493161426     
 -0.189788620552760     
 -0.233585486353691     
 -0.238255528326872     
 -0.276287305588198     
 -0.274446367363660     
 -0.258881397041176     
 -0.256113229404829     
 -0.213000775975292     
 -0.218517811455363     
 -0.196428150951450     
 -0.201466121574703     
 -0.220453823301888     
 -0.225750572581957     
 -0.282732836116566     
 -0.281748912823000     
 -0.183897566477299     
 -0.179354293538306     
 -0.265363586352644     
 -0.267443790936969     
 -0.284397801942633     
 -0.281057703884085     
 -0.248626040157123     
 -0.243984000768299     
 -0.289183086921429     
 -0.203300672365897     
 -0.209026825433435     
 -0.276088417462538     
 -0.272496765169736     
 -0.173747312834276     
 -0.169043187563237     
 -0.291924640736172     
 -0.186062279451633     
 -0.191249365047645     
 -0.228328646165298     
 -0.233889812894272     
 -0.290218871913579     
 -0.220845350958720     
 -0.226971592126651     
 -0.163568487987664     
 -0.158687089452643     
 -0.259271114615303     
 -0.254994522422355     
 -0.289887253198546     
 -0.211124352932886     
 -0.217567275385932     
 -0.293798875143609     
 -0.192672783715511     
 -0.198556759046552     
 -0.153074925486388     
 -0.148016632152187     
 -0.176037829686253     
 -0.181351596993967     
 -0.285436021811362     
 -0.269087003799712     
 -0.266075015971121     
 -0.239297362583035     
 -0.245216256222207     
 -0.299171177733154     
 -0.277431579988706     
 -0.142250843716455     
 -0.137041290233243     
 -0.300108059170954     
 -0.302105428992318     
 -0.277476509056674     
 -0.200000153247535     
 -0.206648013692348     
 -0.166461568554658     
 -0.171964763860367     
 -0.125940060808006     
 -0.131268942668440     
 -0.220686050997138     
 -0.227901541078805     
 -0.182053046130419     
 -0.188024472814441     
 -0.294548012544447     
 -0.231353434367836     
 -0.238134811954209     
 -0.120282040390779     
 -0.114865251529279     
 -0.252072719844484     
 -0.258205931554913     
 -0.162103533739060     
 -0.156342273356949     
 -0.300772134570884     
 -0.289562715518837     
 -0.304206035231302     
 -0.109388279770135     
 -0.103904325756586     
 -0.208797816942654     
 -0.216273645395141     
 -0.194883103680781     
 -0.188126703610258     
 -0.151202654261585     
 -0.145218353893483     
 -0.304759045170849     
 -0.173228081868828     
 -0.179205499564320     
 -9.853535868040536E-002
 -9.299743859262777E-002
 -0.286169100220246     
 -0.310749763673541     
 -0.265005049921411     
 -0.270835410591398     
 -0.309676749855369     
 -0.309639782162148     
 -0.301993107318115     
 -0.139843793112944     
 -0.133696849182190     
 -0.277424027909802     
 -8.789094840462545E-002
 -8.232640418566547E-002
 -0.313639993035269     
 -0.316154980565845     
 -0.171799705969349     
 -0.165419862404335     
 -7.751928181122568E-002
 -7.189715281139453E-002
 -0.203524772961449     
 -0.195883805149846     
 -0.313221670393010     
 -0.128342569401542     
 -0.122084635389503     
 -0.280526597713759     
 -0.246325452817677     
 -0.254110980195701     
 -0.219361996253133     
 -0.227747837095608     
 -0.176146204716422     
 -0.182868205454108     
 -0.292732215655722     
 -6.647929641669569E-002
 -6.076410233494703E-002
 -0.232489712583703     
 -0.240640530144536     
 -0.110724345781490     
 -0.117030039897150     
 -0.161006921093802     
 -0.154253736309795     
 -0.289675922283911     
 -4.790252533605187E-002
 -5.368415006771422E-002
 -0.315652152629641     
 -0.317194535285402     
 -0.106059550013093     
 -9.970375938340065E-002
 -0.322510469387421     
 -0.205605977484692     
 -0.214187031845786     
 -0.148942675767328     
 -0.141980483550190     
 -3.368541030168588E-002
 -3.951456305795412E-002
 -0.303481455390056     
 -0.189632822578422     
 -0.181936631718808     
 -0.323141469814945     
 -0.262682410740912     
 -0.271085193463720     
 -9.469901118436802E-002
 -8.830907628800298E-002
 -0.302840934276163     
 -1.894654042211564E-002
 -2.481687661129273E-002
 -0.326916647461537     
 -0.129956608082899     
 -0.137073958131548     
 -8.467447777465585E-002
 -7.839846864636919E-002
 -0.327873046263324     
 -0.276622589565981     
 -0.329928548440349     
 -0.166075059013524     
 -0.173634339123703     
 -0.286722613790587     
 -3.893610843750424E-003
 -9.809828537081431E-003
 -7.541700994738400E-002
 -6.891655780972089E-002
 -0.117383525865578     
 -0.124587428564795     
 -0.190740043796660     
 -0.199470337309774     
  1.132169243424995E-002
  5.338941600106042E-003
 -0.317234481173202     
 -0.240806158980723     
 -0.231391433189858     
 -0.217047149457923     
 -0.226605085085892     
 -6.287454499908367E-002
 -5.626507193683657E-002
 -0.245649048943381     
 -0.255058361893573     
 -0.317059915820851     
  2.046809522547353E-002
  2.656820836895132E-002
  0.324906538880790     
  0.319784385326320     
 -0.113562463228122     
 -0.106480898803059     
  0.339527778134421     
  0.334528802611194     
  0.310384171485721     
  0.305091608436116     
  4.175968809077502E-002
  3.547231626360539E-002
  0.726545351091101     
  0.725845886116032     
 -0.158357194621182     
 -0.150497664937604     
 -0.289398580904945     
 -4.931515468661928E-002
 -4.265855171357680E-002
  0.354274510090289     
  0.349374762483501     
  0.295856433779766     
  0.290347310747187     
 -0.330661784523555     
  5.685659570408368E-002
  5.036446877924654E-002
  0.364297781052278     
  0.369100714715723     
 -0.331317555604468     
  0.281244917565559     
  0.275512801135181     
  0.379263532794033     
  0.383961216169113     
  6.525142828623276E-002
  7.186503286975103E-002
  0.711918127271792     
  0.710900828754069     
  0.266546285067791     
  0.260639420983513     
  0.394257441422949     
  0.398839035308792     
  0.696781883685528     
  0.695488097353495     
  0.251786091003270     
  0.245772468458839     
  8.682003193468793E-002
  8.020742752681083E-002
  0.409279749003222     
  0.413735935515061     
  0.236979567178800     
  0.230900165379265     
  0.681640428208667     
  0.680098242240347     
  0.101764241131306     
  9.522960154341052E-002
  0.424335041860858     
  0.428658738201728     
  0.222126769259186     
  0.215987492434795     
  0.666586958449436     
  0.664816688622758     
  0.116736850017112     
  0.110293152248015     
  0.207214837083641     
  0.201010584186184     
  0.439415556943523     
  0.443600219687039     
  0.131769055611583     
  0.125387560883051     
  0.651603010861725     
  0.649619532724362     
  0.192226395839814     
  0.185958925306993     
  0.146871267505964     
  0.140515034105794     
  0.177153643787237     
  0.170836613596663     
  0.454477557829468     
  0.458516705388699     
  0.162017896886894     
  0.155673687020324     
  0.636643697146922     
  0.634458436138787     
  0.469456717870131     
  0.473346640795633     
  0.621675951979490     
  0.619299528846996     
 -0.103194775073990     
 -9.589932396759852E-002
 -0.337297926781388     
  0.488076428981647     
  0.484333678992942     
 -0.270322341659716     
 -0.260529854094852     
  0.606703466263540     
  0.604147023566785     
  0.499150169553451     
  0.502750952299915     
  0.589028994637244     
  0.591755235182065     
  0.513963973268052     
  0.517426950911063     
  0.573935827289836     
  0.576825511349034     
  0.528826595857075     
  0.532154080051267     
  0.558840957276932     
  0.561886331525760     
  0.546974405266842     
  0.543784148432603     
 -3.499607052005677E-002
 -2.830415275117171E-002
 -0.335800860427572     
 -0.332158739651804     
 -0.302012950317982     
 -0.138297935517489     
 -0.146185704299264     
 -0.183377378068507     
 -0.174588728640992     
 -0.201678208841106     
 -0.211438456987703     
 -0.332389220677091     
 -0.340357974633553     
 -8.790157688054245E-002
 -8.063789567397175E-002
 -1.996143512884857E-002
 -1.322270957551787E-002
 -0.343138011343758     
 -0.303023235996049     
  0.741318445538675     
  0.740978321069155     
 -0.343911888753802     
 -0.344505144365545     
 -0.126361036688862     
 -0.134571560008346     
  2.345081308376744E-003
 -0.275350293043961     
 -4.466122374012052E-003
 -0.346535398323217     
  0.739314262314371     
 -0.286187049017405     
 -0.168376749376780     
 -0.159663415393829     
 -0.346800765095004     
 -7.313333504193971E-002
 -6.567617182754774E-002
  1.806829198145138E-002
  1.112118988115236E-002
 -0.316955748851908     
 -0.116989800573609     
 -0.108785725196359     
  0.740375061968645     
 -0.240161077671476     
 -0.229621542741590     
 -5.931237245292038E-002
 -5.183612506470951E-002
 -0.317530809089567     
 -0.194612856644287     
 -0.184657289085421     
  2.647458083547231E-002
  0.312677517928987     
  0.319113589626154     
  0.327114969758895     
  0.333375884048506     
  3.372928628322452E-002
  0.304985785053685     
  0.298238639816548     
  0.347980529401536     
  0.341812313283730     
  4.143548577091580E-002
  4.919655065798584E-002
 -0.214465833695880     
 -0.225221889787982     
 -0.243997361285386     
 -0.254543734201799     
  0.290680729758244     
  0.283526621985624     
  0.362821667087523     
  0.356727164770162     
  6.444274389310377E-002
  5.623975581862566E-002
  0.756201629187251     
  0.268632054845489     
  0.276144015813659     
  0.371740390212017     
  0.377747617933779     
 -0.348845241458241     
  0.757094041862506     
  0.724384893298837     
  0.722872660789369     
  7.953485066570512E-002
  7.120506803018359E-002
  0.253766120612183     
  0.261464065302056     
  0.386805255998336     
  0.392702832960694     
  0.708533669082326     
  0.706619403114046     
  0.246693672572249     
  0.238950090118902     
  0.407683615282920     
  0.401914418901629     
 -4.561318150523452E-002
 -3.813996502466040E-002
  8.635601024086750E-002
  9.456719713055715E-002
  0.690562821560312     
  0.692824679316123     
  0.224080602506738     
  0.231845574457135     
  0.422713358632203     
  0.417085357234550     
  0.101600086988279     
  0.109624939376319     
  0.674807430282403     
  0.677373393620133     
  0.209086341365046     
  0.216903307382485     
  0.116897423918166     
  0.124785795366795     
  0.432337556179709     
  0.437814990784820     
 -0.288649310242518     
  0.662134606898384     
  0.659294632439498     
  0.193942757303067     
  0.201826900513622     
  0.140109822716123     
  0.132247206888856     
 -0.151998730267213     
 -0.142739022455393     
  0.178629678829986     
  0.186569933784814     
  0.155592777389266     
  0.147675879828609     
  0.447643927741712     
  0.452960301387891     
  0.163171244766485     
  0.171128992696312     
  0.646993774321620     
  0.643900235268494     
  0.467982403651884     
  0.462840124652495     
  0.628516462010030     
  0.631846948827693     
 -0.352786330346196     
  0.482735632452508     
  0.477766958835513     
  0.613092836337980     
  0.616642467887856     
  0.492489939882823     
  0.497300339663775     
  0.601456593191191     
  0.597711025301493     
 -0.258963232685568     
 -0.269829120284485     
  0.507156238912814     
  0.511822041380665     
  0.586388070489058     
  0.582460532345564     
  0.526400982923387     
  0.521870122163086     
  0.567195191957272     
  0.571302487400835     
  0.541135815425354     
  0.536735068999648     
  0.551869903966404     
  0.556136138401587     
  0.756801470442994     
 -0.348113476833251     
 -0.348880549180726     
 -0.301274237141252     
 -2.336642122101759E-002
 -3.086600145117788E-002
 -9.161599939147462E-002
 -0.100029114628485     
 -0.332455050974710     
 -0.356803920795755     
 -0.333129019414465     
 -0.174504465249903     
 -0.164414288110700     
 -0.197428164012651     
 -0.208475805980634     
 -0.355896106008788     
 -7.371692007344474E-003
 -1.492865464472671E-002
  0.754105340400541     
  0.755387588276775     
 -0.302412011399297     
 -0.360656381439645     
 -7.584312611917238E-002
 -8.426782808698859E-002
 -0.359811072541898     
  8.967696876542358E-003
 -0.285538441240524     
 -0.121089571034419     
 -0.130628922505395     
  1.325881925778104E-003
 -0.362899457689161     
 -0.359616057232217     
 -0.273999980678941     
  0.736204751667078     
 -0.364006211148040     
 -6.076490878802332E-002
 -6.913822094758726E-002
 -0.229066563489437     
 -0.240745571019189     
  1.746880825014415E-002
  2.528357521946410E-002
 -0.316328306631450     
 -0.348948078564822     
  0.738089760433244     
 -0.350047082177626     
  0.319769809249414     
  0.327222642546391     
  0.306029346604945     
  0.313774410664763     
  3.276665524604310E-002
  0.773073809690977     
  4.131736418073596E-002
  0.334075036309434     
  0.341458813368968     
  0.300086436229720     
  0.291727216832539     
  0.356367599297181     
  0.349007207273031     
  0.772399467912783     
  4.718303986984650E-002
  5.690653429094784E-002
 -5.592658062285304E-002
 -4.774732423504114E-002
  0.285761135362121     
  0.276672906987877     
  0.371393039787486     
  0.364081005402241     
  0.773918032878854     
 -0.316913356359746     
  7.214689034287659E-002
  6.189015934883870E-002
 -0.364035955347563     
  0.261648444933795     
  0.271172628526619     
  0.379216472946476     
  0.386434119151934     
  0.721048315102755     
  0.718614880465489     
  0.246928388670412     
  0.256457181897317     
  7.717989725550786E-002
  8.723479704778317E-002
  0.394388986727452     
  0.401476522523669     
 -0.190364803375381     
 -0.179012352685503     
  0.704389496745344     
  0.701491570865167     
  0.241650552430652     
  0.232225854207213     
 -0.112424002546823     
 -0.102822323268808     
  0.102309342716045     
  9.261303353740251E-002
  0.773712504160281     
  0.416559154997319     
  0.409622504460076     
  0.685045630234904     
  0.688330182894008     
 -0.252970170541352     
 -0.241574169177470     
  0.217302589226271     
  0.226741735464188     
  0.117489605302212     
  0.108115104383516     
  0.431755616136035     
  0.424980223329535     
  0.202157328551234     
  0.211681817999774     
  0.672787063904073     
  0.669165280947752     
  0.123651822815287     
  0.132905902890204     
  0.186768861111076     
  0.196373800725473     
  0.148675092472532     
  0.139273093503979     
  0.180705202980061     
  0.171045642143285     
  0.440527710813179     
  0.447133705775859     
  0.164713564025432     
  0.155101747641923     
  0.657495235912724     
  0.653565691204343     
 -0.366633024315872     
 -0.211793108512321     
 -0.223841598206950     
  0.456233670509988     
  0.462650503040777     
  0.638026883140171     
  0.642244417140015     
  0.471435943244011     
  0.477625409585103     
  0.622377282603491     
  0.626865363770378     
 -0.368993219453758     
  0.486023329089008     
  0.492026343941081     
 -0.365287972346745     
  0.611273854226404     
  0.606542093205508     
 -3.518262080093330E-002
 -4.340063300747039E-002
  0.500490694474300     
  0.506335941752796     
  0.595931311440893     
  0.591014121097066     
  0.514955566676565     
  0.520661882611557     
  0.575884894315031     
  0.581004659566039     
  0.535149265108396     
  0.529568877652073     
  0.560177101655165     
  0.565517513112501     
  0.549942328514679     
  0.544478507312506     
 -0.287472767110857     
 -0.159870699657173     
 -0.149036757471624     
  0.771361072691878     
 -0.256578652757931     
 -0.268348603869644     
 -8.588658655622146E-002
 -9.548105761599310E-002
 -0.300416120710080     
 -1.824756008175299E-002
 -2.644115928202911E-002
 -0.366783965701212     
  0.750881542976854     
 -0.143499689752159     
 -0.132608616685738     
 -0.373754477049313     
 -0.331905468934877     
 -0.332751753109661     
 -0.372039735653836     
  0.770057632698833     
 -0.368401518011622     
 -9.828354231924685E-004
 -9.313459402385118E-003
 -7.069838622321270E-002
 -0.376529536773376     
 -8.003012391017697E-002
  0.752982489348679     
 -0.172896477721785     
 -0.161172119967972     
 -0.205317825128698     
 -0.192838132421663     
 -0.378324410661243     
 -0.300632691099655     
 -0.373296008815256     
 -0.272803627165192     
 -0.285048304265757     
 -0.380654348906653     
 -0.241223877968544     
 -0.228319129243449     
  1.619116438837793E-002
  7.921753016528626E-003
  0.790002092817509     
 -0.113326303301872     
 -0.124321530701771     
 -0.383876460934912     
  0.731813368842711     
 -0.382433917777506     
 -0.350225157807468     
  2.505083115636397E-002
  3.316651082077587E-002
  0.313021432252493     
  0.321432568156767     
  0.325644503545488     
  0.334124905716450     
 -5.304606860664842E-002
  0.300691095601853     
  0.309767041373423     
  3.883727503012931E-002
  0.789539979096462     
 -0.314716435066782     
 -0.348771905223200     
 -6.228357401428072E-002
  0.734647589491952     
  4.937898397245275E-002
  0.341038610702834     
  0.349608665161683     
  0.285158322524332     
  0.295528118147096     
  0.791388976406519     
  5.178173409242318E-002
  0.364854429102389     
  0.356240438763664     
  6.473544228637731E-002
  0.280950447417941     
  0.269302382366167     
  0.371482330486244     
  0.380033862175094     
  6.760810057271081E-002
  7.982914159110911E-002
  0.254548489592659     
  0.266269600768008     
 -0.380243411818786     
 -0.385748296253226     
  0.386728666683003     
  0.395145368280320     
  0.716468675893481     
  0.713008626135978     
  0.240391094523246     
  0.251513158064385     
  0.791243645054627     
  8.326766042603259E-002
  9.484723282946965E-002
  0.401976659715441     
  0.410226151731073     
  0.236677017181059     
  0.225658413014596     
  0.791863066481029     
  0.699294638374371     
  0.695365851576006     
  0.109942561248373     
  9.902594849521423E-002
 -9.639077739258645E-002
  0.210555866702196     
  0.221715526170748     
 -0.107151786579485     
  0.425393598195819     
  0.417324321628238     
  0.125244143918165     
  0.114774708691899     
  0.683421623581696     
  0.679099679435508     
  0.195227391691592     
  0.206544456034941     
 -0.156435818607727     
 -0.144260907862407     
  0.130484612897299     
  0.141031619257147     
  0.179538333974989     
  0.190913756181224     
  0.146368132500361     
  0.157623265577142     
  0.440816866284550     
  0.432925294639898     
  0.162979420560776     
  0.174509278202490     
 -0.314770151502447     
  0.668031878951652     
  0.663353457399871     
  0.766915343159611     
  0.448995001376954     
  0.456707195969798     
  0.652804810893241     
  0.647789004048100     
  0.465916303175738     
  0.473403618766270     
  0.632113200501314     
  0.637452640244655     
  0.479800052628344     
  0.486869300567103     
 -0.222000325529804     
 -0.208474546019268     
  0.616042265327980     
  0.621697467054509     
 -0.260985219052921     
 -0.248432857563923     
  0.501210096851709     
  0.494126588937695     
  0.604995445335499     
  0.599059390988403     
  0.508166858238298     
  0.514914708145290     
  0.590400911078922     
  0.584449425788678     
  0.522458021113430     
  0.529267640518168     
  0.576410773755034     
  0.570020217802633     
  0.543405371478165     
  0.536897133309712     
  0.558227073828859     
  0.551609756649709     
 -0.186330214285764     
 -0.173483401917364     
 -0.385919344307618     
 -3.085001274962337E-002
 -3.941848553908629E-002
  0.788073859346735     
 -0.286094557729947     
 -0.386106680702106     
  0.769039465165632     
 -7.815899156339425E-002
 -8.906495786506791E-002
 -0.369285451296278     
  0.786978042747739     
 -0.367290745546202     
 -0.329925023995222     
 -0.299406592815065     
 -1.205100823834265E-002
 -0.391442689566170     
 -2.087526599644551E-002
  0.746644121525474     
 -0.137738252178608     
 -0.125262305661516     
 -0.390146183889869     
 -0.388407071456846     
 -0.331172486341972     
 -0.388211345634969     
 -0.394849940862304     
 -3.044695515824773E-003
  6.290988138188486E-003
 -0.397300897417386     
  0.749717391935105     
  0.807227614340808     
 -0.399962542936374     
 -0.241656115322614     
 -0.227384817257925     
 -0.295882785739939     
 -0.169827518386390     
 -0.156790198053773     
 -0.200829429378171     
 -0.186706594459696     
 -0.403957036863073     
 -0.101906212303599     
 -0.114504380062132     
 -0.273475496536028     
 -0.286614285847198     
  2.410422707134129E-002
 -0.389870031146876     
  1.587829631348210E-002
  0.784065419722503     
 -0.402275446848278     
  0.725928971824824     
  0.807384540365095     
  3.726663630660150E-002
  4.242439378235400E-002
  0.809303351715571     
  0.312917121622628     
  0.322224991817014     
  0.332969598286887     
  0.342721936131469     
  0.295229058995996     
  0.305511920716418     
 -0.349442512337542     
  5.744682191989795E-002
  0.348211507093116     
  0.358023404499780     
  0.729864862929693     
  0.277266456429478     
  0.291068105403754     
 -0.387383705543031     
 -0.347446760402761     
  7.245257631477643E-002
  0.373582951619679     
  0.363533900020680     
  0.275897935339472     
  0.260462116038214     
  5.774236429392123E-002
  0.809647331415428     
  7.362682789178017E-002
  8.733287542198900E-002
  0.248503168400282     
  0.261635494093034     
 -0.310102288669410     
  0.379002999570714     
  0.388664895214475     
  0.810608441976645     
  0.234424263668946     
  0.246407594093291     
  0.102236982575674     
  8.939624580020890E-002
  0.394214798337428     
  0.403902938436492     
  0.709785441038701     
  0.705186815422559     
 -0.406253846072962     
  0.232053772106041     
  0.218986666895821     
  0.810760251031089     
  0.786062040772572     
 -4.198342632333848E-002
  0.117358875407655     
  0.105837942617230     
  0.418744683493605     
  0.409495225922355     
  0.693528890192401     
  0.688656330836230     
  0.203929370177602     
  0.216608265837599     
  0.121388230182939     
  0.132596227965655     
 -0.398600451769914     
 -0.258045409196811     
 -0.244558842036671     
  0.188329648925127     
  0.201973414012282     
 -5.104871986908147E-002
  0.137315765813185     
  0.149034692615036     
  0.185354984946982     
  0.172781029507876     
  0.434126895601790     
  0.424866687582045     
  0.152928959898175     
  0.167695912937593     
  0.678658845364650     
  0.673253794441024     
  0.449656617116666     
  0.440787165056287     
  0.663077033173935     
  0.657442510007812     
  0.457518431092570     
  0.466460335092932     
  0.648539190968363     
  0.642384818664964     
 -5.936082751463693E-002
  0.481463168638009     
  0.489993962514181     
  0.626172869533474     
  0.632540434418613     
  0.617004370438675     
  0.610068413187397     
  0.508778474455235     
  0.517014070379818     
  0.593590432719881     
  0.586288620286850     
 -7.038541499660780E-002
 -0.154742491177037     
 -0.140704150428521     
  0.544355924837536     
  0.536356129471227     
  0.569626940508016     
  0.561722174538991     
  0.805142058499241     
  0.763336164792564     
 -0.311015828341293     
  0.804371053209929     
 -0.409454573351297     
 -0.406875018343695     
 -0.402040545197610     
 -2.491154212359891E-002
 -3.259010800412929E-002
 -0.178679130585467     