 TITLE="euler solver on unstructured grid" 
 VARIABLES= "X" "Y"  "P" "Rou" "U"  "V"  "nuT"
 ZONE NODES=        5306  ELEMENTS=       10382  ZONETYPE=FETRIANGLE
 DATAPACKING=BLOCK
 VARLOCATION=([3-7]=CELLCENTERED)
 -0.272876269546442     
 -0.264418850623263     
 -0.256243206374567     
 -0.248114554675750     
 -0.240010618469214     
 -0.231922727764976     
 -0.223846427151514     
 -0.215779067465224     
 -0.205033302917651     
 -0.194298683009292     
 -0.183571372294567     
 -0.172851105946705     
 -0.162137890076119     
 -0.151429003090111     
 -0.140724872556940     
 -0.130025986253135     
 -0.119329983835574     
 -0.108637533705577     
 -9.794933436859204E-002
 -8.726317600215969E-002
 -7.657984742412494E-002
 -6.590013745233249E-002
 -5.522192657671891E-002
 -4.035311610060751E-002
 -2.548849009882874E-002
 -1.062771742593178E-002
  4.230472402038256E-003
  1.908429102046881E-002
  3.393500891331477E-002
  4.878277660123558E-002
  6.362777470902259E-002
  7.847018386146710E-002
  9.331012447509666E-002
  0.108148776721471     
  0.122984231819449     
  0.137817609732326     
  0.152649030876631     
  0.167478555460627     
  0.182306334004974     
  0.197132426717934     
  0.211957923458673     
  0.226780855237785     
  0.241602342018566     
  0.256422444009281     
  0.271241191314060     
  0.286058644141169     
  0.300874892803002     
  0.315690936846327     
  0.330504837385872     
  0.345317654176669     
  0.360129387218719     
  0.374940096720284     
  0.389749812785497     
  0.404558535414357     
  0.419367294257765     
  0.434174120326316     
  0.448980013166779     
  0.463785002883286     
  0.478589119579967     
  0.493392333152692     
  0.508194643601460     
  0.522997080577171     
  0.537797644986289     
  0.552597306271451     
  0.567396094536788     
  0.582193949574036     
  0.596990931591460     
  0.611786950276663     
  0.626583035280546     
  0.641377187509572     
  0.656170316198114     
  0.670962451450303     
  0.685753563162008     
  0.700543591124966     
  0.715332535339175     
  0.726670498365492     
  0.715160821370879     
  0.700249232923353     
  0.685338728224575     
  0.670429307274545     
  0.655520909864999     
  0.640613505891805     
  0.625707125459096     
  0.610800678707708     
  0.595896164731176     
  0.580992614086864     
  0.566089936462377     
  0.551188192065979     
  0.536287320689406     
  0.521387352436789     
  0.506487257657229     
  0.491589035444262     
  0.476691716355251     
  0.461795300390198     
  0.446899757444969     
  0.432005117623696     
  0.417111411030512     
  0.402217638118649     
  0.387325828085774     
  0.372435011489252     
  0.357545188329082     
  0.342656388709396     
  0.327768672838458     
  0.312882040716268     
  0.297995553004323     
  0.283111269004420     
  0.268228189169793     
  0.253346403812838     
  0.238465973141817     
  0.223586927260863     
  0.208709326378240     
  0.193832291363707     
  0.178957851414933     
  0.164085097297544     
  0.149214089219805     
  0.134344977702374     
  0.119477822953517     
  0.104612745389760     
  8.974886588086249E-002
  7.488827383275691E-002
  6.003015032346620E-002
  4.517461576951796E-002
  3.032185079570353E-002
  1.547203602681425E-002
  6.253219835095582E-004
 -1.421901994379142E-002
 -2.905877993262969E-002
 -4.389468659258611E-002
 -5.872640877820996E-002
 -6.937252864922962E-002
 -8.001515033053450E-002
 -9.065615249913297E-002
 -0.101294324879334     
 -0.111928457195446     
 -0.122560337812082     
 -0.133188666141155     
 -0.143812111490447     
 -0.154432311703910     
 -0.165047755464534     
 -0.175656871247046     
 -0.186260935645817     
 -0.196857955677725     
 -0.207445667422464     
 -0.218024233621524     
 -0.225949622221825     
 -0.233866069894954     
 -0.241770927477306     
 -0.249659739557362     
 -0.257523836145136     
 -0.265340940183031     
  -9.96730262977331     
  -8.96775586186138     
  -7.96820909394945     
  -6.96866232603751     
  -5.96911555812558     
  -4.96956879021364     
  -3.97002202230171     
  -2.97047525438977     
  -1.97092848647784     
 -0.971381718565904     
  2.816504934603059E-002
   1.02771181725797     
   2.02725858516990     
   3.02680535308183     
   4.02635212099377     
   5.02589888890570     
   6.02544565681764     
   7.02499242472957     
   8.02453919264151     
   9.02408596055344     
   10.0236327284654     
   9.99352859657613     
   9.96342446468688     
   9.93332033279763     
   9.90321620090839     
   9.87311206901914     
   9.84300793712989     
   9.81290380524064     
   9.78279967335140     
   9.75269554146215     
   9.72259140957290     
   9.69248727768366     
   9.66238314579441     
   9.63227901390516     
   9.60217488201591     
   9.57207075012667     
   9.54196661823742     
   9.51186248634817     
   9.48175835445893     
   9.45165422256968     
   9.42155009068043     
   8.42200332276849     
   7.42245655485656     
   6.42290978694463     
   5.42336301903269     
   4.42381625112076     
   3.42426948320882     
   2.42472271529689     
   1.42517594738495     
  0.425629179473019     
 -0.573917588438915     
  -1.57346435635085     
  -2.57301112426278     
  -3.57255789217472     
  -4.57210466008665     
  -5.57165142799859     
  -6.57119819591052     
  -7.57074496382246     
  -8.57029173173439     
  -9.56983849964633     
  -10.5693852675583     
  -10.5392811356690     
  -10.5091770037798     
  -10.4790728718905     
  -10.4489687400013     
  -10.4188646081120     
  -10.3887604762228     
  -10.3586563443335     
  -10.3285522124443     
  -10.2984480805550     
  -10.2683439486658     
  -10.2382398167765     
  -10.2081356848873     
  -10.1780315529980     
  -10.1479274211088     
  -10.1178232892196     
  -10.0877191573303     
  -10.0576150254411     
  -10.0275108935518     
  -9.99740676166256     
 -0.220144767977571     
 -0.222947334442323     
 -0.210920571655197     
 -0.213828212739973     
 -0.231576525903324     
 -0.228845935217967     
 -0.216412619853396     
 -0.219844721379017     
 -0.203904689732285     
 -0.200870804904158     
 -0.240464228714364     
 -0.237816838401017     
 -0.225022001146203     
 -0.228437872419098     
 -0.207245301693216     
 -0.210781366813763     
 -0.247143689900455     
 -0.249600010587744     
 -0.193639858210642     
 -0.190485614980867     
 -0.234276103624188     
 -0.237769163886384     
 -0.276280802847434     
 -0.274700209208723     
 -0.258620791653079     
 -0.256597844263161     
 -0.213826537046038     
 -0.217877202567002     
 -0.197209070150397     
 -0.200856179121087     
 -0.221241006577891     
 -0.225155246281282     
 -0.282807693574708     
 -0.281941042628536     
 -0.183336236004674     
 -0.180072070893445     
 -0.265781066601582     
 -0.267253909068503     
 -0.284357600802742     
 -0.281372043343895     
 -0.248174423667077     
 -0.244650677323642     
 -0.289325855705979     
 -0.204164622865876     
 -0.208339568287526     
 -0.275972476407645     
 -0.272844591896720     
 -0.173157197862619     
 -0.169780939779700     
 -0.291968209003930     
 -0.186866052977992     
 -0.190607727827306     
 -0.229127756450220     
 -0.233289800496481     
 -0.290468217693224     
 -0.221728182524425     
 -0.226280610074194     
 -0.162947926671537     
 -0.159446426295211     
 -0.258876845343461     
 -0.255616219814007     
 -0.290273854907204     
 -0.212066827753942     
 -0.216807869157310     
 -0.293718904577949     
 -0.193565884539337     
 -0.197831283966644     
 -0.152424127695272     
 -0.148797059110697     
 -0.176859510398810     
 -0.180683527048241     
 -0.285279440173416     
 -0.268769937959874     
 -0.266628988159546     
 -0.240100829556421     
 -0.244622845789422     
 -0.299325324973105     
 -0.277887728513609     
 -0.141573223024369     
 -0.137839109959733     
 -0.300414129320709     
 -0.302115730561691     
 -0.277243320549702     
 -0.200985875166815     
 -0.205835811761715     
 -0.167308203909247     
 -0.171263578594338     
 -0.126750898417578     
 -0.130568739566703     
 -0.221700479621572     
 -0.227077807699538     
 -0.182962550840596     
 -0.187273621325621     
 -0.294339524809628     
 -0.232278294518542     
 -0.237411072093536     
 -0.119563347204309     
 -0.115685013174702     
 -0.252848597189809     
 -0.257655709139134     
 -0.161360335876577     
 -0.157222273716951     
 -0.301223741982212     
 -0.290104457728176     
 -0.304078436377460     
 -0.108653545776049     
 -0.104730649108830     
 -0.209876085126053     
 -0.215375681395176     
 -0.194035646553113     
 -0.189137730934680     
 -0.150421846805964     
 -0.146126429277337     
 -0.304480589804050     
 -0.174139882265991     
 -0.178444896151128     
 -9.778577374742066E-002
 -9.382918549256011E-002
 -0.285908373583615     
 -0.310979528144648     
 -0.265717674644076     
 -0.270370006489968     
 -0.309774159394637     
 -0.310004491791224     
 -0.302605189633198     
 -0.139033388922404     
 -0.134624595986066     
 -0.278054535000977     
 -8.713007140157575E-002
 -8.316024819650188E-002
 -0.313614777201551     
 -0.315972076695815     
 -0.170978080280857     
 -0.166386028655255     
 -7.674157854500702E-002
 -7.273888365974959E-002
 -0.202573374419503     
 -0.197004802832971     
 -0.313719477931363     
 -0.127509211562215     
 -0.123025275257776     
 -0.280168730682584     
 -0.247286910307250     
 -0.253364771218315     
 -0.220531305094900     
 -0.226766444640640     
 -0.177157889661657     
 -0.182010087314546     
 -0.292385777344631     
 -6.567714836079161E-002
 -6.162084091565898E-002
 -0.233574377119710     
 -0.239755595867431     
 -0.111669845114692     
 -0.116181949762296     
 -0.160125963397735     
 -0.155269715274700     
 -0.290388645758505     
 -4.877121112910444E-002
 -5.285936198524581E-002
 -0.316328328976360     
 -0.316839163174408     
 -0.105195186198526     
 -0.100655940609750     
 -0.322628657615462     
 -0.206837620096242     
 -0.213132115299436     
 -0.148024315762464     
 -0.143023345381512     
 -3.456296791122550E-002
 -3.866937195115769E-002
 -0.303032742347979     
 -0.188650799951884     
 -0.183076827004182     
 -0.323479308760288     
 -0.263569911709461     
 -0.270436853541646     
 -9.381851637057849E-002
 -8.926750165358151E-002
 -0.303632310064396     
 -1.983036192136479E-002
 -2.395380218010512E-002
 -0.326850375365332     
 -0.131019127887831     
 -0.136125527778743     
 -8.380105641711372E-002
 -7.934132771694684E-002
 -0.328416529243907     
 -0.277427393726230     
 -0.329684806406774     
 -0.167201392614118     
 -0.172653014098905     
 -0.286199726226916     
 -4.780587028473976E-003
 -8.932015974987169E-003
 -7.449620976883783E-002
 -6.989869926957197E-002
 -0.118457278867191     
 -0.123616778447408     
 -0.192013445578194     
 -0.198361894194408     
  1.043506583382883E-002
  6.227930259417518E-003
 -0.316690774093997     
 -0.239739426007661     
 -0.232653593238323     
 -0.218386591513584     
 -0.225449952486678     
 -6.191688733255798E-002
 -5.727361126975581E-002
 -0.246820628864835     
 -0.254094610368342     
 -0.317928777949051     
  2.136504937480042E-002
  2.568520198800810E-002
  0.324330315005548     
  0.320641267726399     
 -0.112599312489280     
 -0.107537633490022     
  0.338969948849714     
  0.335379238109467     
  0.309788612437360     
  0.305956072459362     
  4.088294563348245E-002
  3.637531835927445E-002
  0.726683128271882     
  0.726316471516394     
 -0.157321631074633     
 -0.151665049965583     
 -0.290293143383077     
 -4.832808103927987E-002
 -4.368582321748853E-002
  0.353735497971465     
  0.350218700402766     
  0.295240109016133     
  0.291220518366468     
 -0.331403865007555     
  5.598791128019517E-002
  5.127326232554612E-002
  0.365134365893890     
  0.368581707164700     
 -0.330883998588006     
  0.280607152178831     
  0.276394597391804     
  0.380091824868634     
  0.383463357169095     
  6.616618089801260E-002
  7.100540537807738E-002
  0.712008854270431     
  0.711411886791158     
  0.265887210123169     
  0.261528738867607     
  0.395076662214401     
  0.398363175631580     
  0.696835337213939     
  0.696026689408294     
  0.251106139262767     
  0.246668477015091     
  8.596997419762666E-002
  8.112742976589592E-002
  0.410089221774131     
  0.413282737698885     
  0.236279193527804     
  0.231802536940970     
  0.681661129925184     
  0.680658637774598     
  0.100924089400445     
  9.615345135014947E-002
  0.425134009317435     
  0.428228916771443     
  0.221406384348890     
  0.216896012212864     
  0.666577059952660     
  0.665396149694122     
  0.115906978987074     
  0.111219414134103     
  0.206474866350372     
  0.201924881160046     
  0.440202994088747     
  0.443194750403302     
  0.130950102242821     
  0.126315001757948     
  0.651563484733923     
  0.650216739299605     
  0.191467453393464     
  0.186878375115303     
  0.146064407938235     
  0.141442533074857     
  0.176376826015125     
  0.171760195322502     
  0.455252186343205     
  0.458136804733134     
  0.161224981621543     
  0.156599976442994     
  0.636575106648320     
  0.635072582011643     
  0.470217596503729     
  0.472993160170846     
  0.621578929832939     
  0.619929793194804     
 -0.102188144380455     
 -9.699021578936783E-002
 -0.337505648065406     
  0.487749278519173     
  0.485080817470655     
 -0.269466847904180     
 -0.261608638381805     
  0.606578932668837     
  0.604792355328258     
  0.499884230772369     
  0.502449429923271     
  0.589688497210398     
  0.591604003234897     
  0.514685720420056     
  0.517150296494034     
  0.574609146572283     
  0.576647866547070     
  0.529536657663006     
  0.531901697240045     
  0.559527496842218     
  0.561682799690765     
  0.546746112988527     
  0.544482760834295     
 -3.398234155659796E-002
 -2.934754302187585E-002
 -0.335846691015210     
 -0.331525469793611     
 -0.301369136534086     
 -0.139468135943112     
 -0.145136834422369     
 -0.182237803619027     
 -0.175880289520847     
 -0.203080468041831     
 -0.210209063056020     
 -0.333337183461842     
 -0.340760246642041     
 -8.687684534676830E-002
 -8.173363808376057E-002
 -1.892483055991571E-002
 -1.427857592597389E-002
 -0.343028396352405     
 -0.304005588107636     
  0.741524198217784     
  0.741379027956302     
 -0.344515261909905     
 -0.344190980123198     
 -0.127575616745804     
 -0.133467860113531     
  1.282696345886679E-003
 -0.276339558265688     
 -3.412692178944371E-003
 -0.346025325033119     
  0.739912508761378     
 -0.285439685909548     
 -0.167232209867113     
 -0.160947576020762     
 -0.347611667693126     
 -7.204746381190991E-002
 -6.682030429494779E-002
  1.700532268156161E-002
  1.218523781854332E-002
 -0.316209801386859     
 -0.115867832795444     
 -0.110003029312955     
  0.740376678589794     
 -0.238910726055023     
 -0.231063212292564     
 -5.819040779203452E-002
 -5.300532191784424E-002
 -0.318602298356153     
 -0.193325977026086     
 -0.186104127472063     
  2.754423649430534E-002
  0.313703534950475     
  0.318366056626342     
  0.328136066494601     
  0.332643851514028     
  3.267072850640743E-002
  0.304218145767648     
  0.299274416204166     
  0.347263078089923     
  0.342830244227007     
  4.251010609374883E-002
  4.814581720044914E-002
 -0.215989137225029     
 -0.223879741080362     
 -0.245358419148170     
 -0.253383837838109     
  0.289889669667674     
  0.284574251582314     
  0.362121115554933     
  0.357740460393601     
  6.340129317524307E-002
  5.732244903676784E-002
  0.756717826266930     
  0.269689387110201     
  0.275329111982338     
  0.372747228142328     
  0.377066365212665     
 -0.348924036099272     
  0.757393416689314     
  0.724325442188984     
  0.723529626326647     
  7.850279322533378E-002
  7.229681751275520E-002
  0.254830905947524     
  0.260625757111539     
  0.387804269769506     
  0.392042486171816     
  0.708428084551548     
  0.707316037508729     
  0.245832438933515     
  0.240022052214682     
  0.407045069427860     
  0.402904707776587     
 -4.445731351555830E-002
 -3.933328955664509E-002
  8.745479442811099E-002
  9.354416985910118E-002
  0.691287286283829     
  0.692682498787952     
  0.225160202741921     
  0.230961715567790     
  0.422097344167430     
  0.418066086631117     
  0.102703553735764     
  0.108610550124543     
  0.675553699830860     
  0.677199408910663     
  0.210173663453715     
  0.215996968010544     
  0.118003718226184     
  0.123779945092632     
  0.433307472892427     
  0.437222660739113     
 -0.289734360905635     
  0.661930590326309     
  0.660060194286934     
  0.195037525084103     
  0.200898266790168     
  0.139113202646366     
  0.133355017662817     
 -0.150765724886880     
 -0.144097246403697     
  0.179731064377102     
  0.185619729222944     
  0.154607682176719     
  0.148783888246945     
  0.448600917596168     
  0.452393687761210     
  0.164277304976234     
  0.170159393875940     
  0.646760268156679     
  0.644684030466049     
  0.467444215226418     
  0.463781318343118     
  0.629317661413269     
  0.631584376319498     
 -0.353048851413536     
  0.482226438601867     
  0.478691558304713     
  0.613909998112719     
  0.616351942907525     
  0.493399771027898     
  0.496818179852662     
  0.601140334286651     
  0.598541736879140     
 -0.260240472979692     
 -0.268763897674753     
  0.508053389705733     
  0.511364806148609     
  0.586046794568428     
  0.583303987958470     
  0.525966823772743     
  0.522756481552987     
  0.568052283520310     
  0.570935128493103     
  0.540723256573138     
  0.537612209348802     
  0.552738360402165     
  0.555744803989670     
  0.756882668345950     
 -0.347393137928585     
 -0.349909122455761     
 -0.300422040710689     
 -2.458614771837581E-002
 -2.967458888850384E-002
 -9.287603857963203E-002
 -9.884903588480387E-002
 -0.331610536527466     
 -0.357261209637564     
 -0.334292901172944     
 -0.173177185604208     
 -0.165885366716361     
 -0.199019819319838     
 -0.207053698803697     
 -0.355684135830229     
 -8.607989680160502E-003
 -1.371153553812769E-002
  0.754842371292338     
  0.755245095474625     
 -0.303592850236009     
 -0.361318762691536     
 -7.712953793074084E-002
 -8.304747648423200E-002
 -0.359435419220239     
  7.724565246940641E-003
 -0.284579583663831     
 -0.122488338484245     
 -0.129336251515328     
  2.558961717304032E-003
 -0.362316878305940     
 -0.359560072213859     
 -0.275182536900000     
  0.737011775100357     
 -0.364885171210769     
 -6.208311738129985E-002
 -6.787331048671043E-002
 -0.230697706988393     
 -0.239303416094374     
  1.870816782073816E-002
  2.404176572639412E-002
 -0.315372157319727     
 -0.348004088655573     
  0.737876459782941     
 -0.351305597048853     
  0.320953856454349     
  0.326324946820412     
  0.307219750040474     
  0.312862167449599     
  3.400389405014374E-002
  0.773017431048408     
  4.008347396610659E-002
  0.335262929103205     
  0.340567098495168     
  0.299147165315350     
  0.292936656317939     
  0.355487694992579     
  0.350194839430557     
  0.773047380705809     
  4.842674279723560E-002
  5.568358678192385E-002
 -5.465089102742193E-002
 -4.906668189316504E-002
  0.284794530613916     
  0.277897603391240     
  0.370529897094056     
  0.365264671308718     
  0.774096798828106     
 -0.318196328421735     
  7.093431515594047E-002
  6.315008939015890E-002
 -0.364157356755029     
  0.262880687478776     
  0.270179809608918     
  0.380393605922664     
  0.385590884759615     
  0.720780373408055     
  0.719472221985881     
  0.248166752506830     
  0.255438989959897     
  7.845163479996062E-002
  8.603124490606986E-002
  0.395558414965572     
  0.400654383602513     
 -0.188877817311939     
 -0.180655411032954     
  0.704081527640181     
  0.702382044315939     
  0.240607335682568     
  0.233473093298289     
 -0.111094550797552     
 -0.104241237406864     
  0.101113435848951     
  9.389234143976320E-002
  0.774125302598860     
  0.415758423165282     
  0.410783669359835     
  0.685959105718374     
  0.687990734535277     
 -0.251639842126144     
 -0.243100891265193     
  0.218559468361938     
  0.225673415118187     
  0.116300135747120     
  0.109398801877073     
  0.430976929029840     
  0.426132265812956     
  0.203424005518252     
  0.210587997510830     
  0.672418333925877     
  0.670098537242563     
  0.124938282513285     
  0.131722192604996     
  0.188045265643950     
  0.195254094320505     
  0.147498003073197     
  0.140561576777534     
  0.179560279212580     
  0.172330733852218     
  0.441668712780780     
  0.446378878612138     
  0.163548350456790     
  0.156390903799766     
  0.657097186825632     
  0.654518022918422     
 -0.367742023854851     
 -0.213519501942427     
 -0.222294498104385     
  0.457359291274107     
  0.461923850447629     
  0.638998135882101     
  0.641816598939599     
  0.472538442740924     
  0.476934192901834     
  0.623366780573253     
  0.626407905327673     
 -0.369299389876489     
  0.487107623768011     
  0.491365222190088     
 -0.364481790533031     
  0.610789120786403     
  0.607546985988224     
 -3.655949142415176E-002
 -4.205988860601739E-002
  0.501560833005317     
  0.505700844432096     
  0.595426690322288     
  0.592026983880830     
  0.516014872134636     
  0.520049503388447     
  0.576911072602642     
  0.580474827871026     
  0.534556778925377     
  0.530620293271477     
  0.561220602932136     
  0.564957792375903     
  0.549366726149198     
  0.545525207607705     
 -0.288751120365432     
 -0.158430752405120     
 -0.150607882637669     
  0.771066412703768     
 -0.258060528347927     
 -0.267070432096159     
 -8.733128417093251E-002
 -9.411011374267225E-002
 -0.299357652776916     
 -1.965624674872580E-002
 -2.506123020876628E-002
 -0.365739104959231     
  0.751846739265672     
 -0.142038409800267     
 -0.134186574589445     
 -0.374259537593449     
 -0.330840062594642     
 -0.334143337286378     
 -0.371835124501422     
  0.770943828301961     
 -0.369754846859800     
 -2.407152863868538E-003
 -7.909528987424155E-003
 -7.214805334728076E-002
 -0.376099232390497     
 -7.864077667790313E-002
  0.752608799165587     
 -0.171345843461000     
 -0.162864786688061     
 -0.203685242245803     
 -0.194637991594753     
 -0.379040839722598     
 -0.302015102277312     
 -0.373285303950376     
 -0.274187187927787     
 -0.283877107931112     
 -0.380002233244018     
 -0.239563690989263     
 -0.230168036743319     
  1.476359922725309E-002
  9.338189344228044E-003
  0.789797470975766     
 -0.114924016499104     
 -0.122822709087506     
 -0.382984721054368     
  0.732839418671776     
 -0.383377983110997     
 -0.351727578809830     
  2.646253985678096E-002
  3.174502844630851E-002
  0.314342847843075     
  0.320396029743367     
  0.326997133199575     
  0.333064122219208     
 -5.458087363653720E-002
  0.302051913638792     
  0.308687653118327     
  4.021782805239854E-002
  0.790332092115881     
 -0.313548607652322     
 -0.347591285097699     
 -6.079338687911669E-002
  0.734209746764492     
  4.797429699851120E-002
  0.342397874018837     
  0.348551503786767     
  0.286550615584629     
  0.294414880725427     
  0.791431915113545     
  5.320515896922686E-002
  0.363810139982150     
  0.357599559008436     
  6.334413227276886E-002
  0.279807548362094     
  0.270706556512226     
  0.372835868030452     
  0.379009149914702     
  6.905061235340916E-002
  7.844799467828106E-002
  0.255947562333772     
  0.265098918991250     
 -0.380389599256642     
 -0.386936433374998     
  0.388074762207177     
  0.394142217913278     
  0.715985357918773     
  0.714074250918424     
  0.241801033745204     
  0.250315389410039     
  0.791785186750437     
  8.472204002227936E-002
  9.347359438890773E-002
  0.403315553168184     
  0.409243711485421     
  0.235451947830667     
  0.227080276671602     
  0.792154763926105     
  0.698785616052826     
  0.696449838713705     
  0.108574160791676     
  0.100485952649556     
 -9.797808887834952E-002
  0.211989748769014     
  0.220462465668848     
 -0.105647244458124     
  0.424431126765055     
  0.418656210326711     
  0.123878587208240     
  0.116237558182811     
  0.682887238266666     
  0.680200712712332     
  0.196673657587126     
  0.205261825905936     
 -0.154815530833155     
 -0.146009028825081     
  0.131950373492314     
  0.139667034645583     
  0.180998192919736     
  0.189599663104665     
  0.147837882707102     
  0.156259180723826     
  0.439874886744876     
  0.434249396753749     
  0.164452873966846     
  0.173162212426063     
 -0.316275346216154     
  0.667469895424086     
  0.664472895164349     
  0.768045206982785     
  0.450309174695968     
  0.455787934991219     
  0.652213161802932     
  0.648928223779858     
  0.467211294421002     
  0.472516887098547     
  0.633273191225552     
  0.636829626873315     
  0.481041762801134     
  0.486046617763573     
 -0.220224168484506     
 -0.210429987392838     
  0.617223277579246     
  0.621042108075476     
 -0.259468700629324     
 -0.250145792418285     
  0.500386130267992     
  0.495381241183722     
  0.604312074948416     
  0.600256042008163     
  0.509380331603575     
  0.514143114867705     
  0.589729561824685     
  0.585623257672934     
  0.523693375800637     
  0.528485802222091     
  0.575677144519358     
  0.571245060688304     
  0.542668617348129     
  0.538098985992566     
  0.557467718406948     
  0.552845941628627     
 -0.184636093107934     
 -0.175330691972915     
 -0.386261921862509     
 -3.243015289151947E-002
 -3.787287744999923E-002
  0.787621678985149     
 -0.287547266566826     
 -0.384960213969312     
  0.768500692915506     
 -7.981754261184289E-002
 -8.747053661193985E-002
 -0.370898031500892     
  0.788021217950496     
 -0.365992763486198     
 -0.328628225541735     
 -0.298165136042416     
 -1.366090766270701E-002
 -0.391985804293831     
 -1.930009237513310E-002
  0.747847426134335     
 -0.136064026129989     
 -0.127047112904680     
 -0.390084628808699     
 -0.388120297764556     
 -0.332806563975723     
 -0.389658303134645     
 -0.394369980537966     
 -1.448227988308268E-003
  4.675209878624862E-003
 -0.398063265530529     
  0.749102401220971     
  0.806866492433380     
 -0.399241482365409     
 -0.239747069100191     
 -0.229486010861571     
 -0.297474245663342     
 -0.168101236187333     
 -0.158656058093510     
 -0.198968541933195     
 -0.188732941965137     
 -0.402978959376760     
 -0.103716004839497     
 -0.112782250919723     
 -0.275100268638895     
 -0.285193114272189     
  2.248962526172887E-002
 -0.391590860177286     
  1.748720982971889E-002
  0.785361210311387     
 -0.403282279024622     
  0.727185152511077     
  0.808332050941600     
  3.884945818224435E-002
  4.082210819834431E-002
  0.809196493107285     
  0.314431398216909     
  0.320997758961448     
  0.334512502016611     
  0.341474106124915     
  0.296759981039311     
  0.304270757759241     
 -0.351204532476521     
  5.589449868312409E-002
  0.349731059053554     
  0.356811364246741     
  0.729191309941053     
  0.278883848979077     
  0.289764716682340     
 -0.385968667645658     
 -0.346014742748734     
  7.088218933089344E-002
  0.372360367680142     
  0.365079318981336     
  0.274593911487865     
  0.262015131382526     
  5.936862628766723E-002
  0.810331545493830     
  7.524137780688896E-002
  8.580120647552365E-002
  0.250053647327732     
  0.260273576321559     
 -0.308716693297703     
  0.380507402905750     
  0.387498930861262     
  0.810762429146915     
  0.236020756461798     
  0.245046261489548     
  0.100679570876324     
  9.104961156226828E-002
  0.395742886982695     
  0.402728107436842     
  0.709082245701596     
  0.706464916860844     
 -0.407519927687426     
  0.230632931990512     
  0.220567419970555     
  0.811178935555538     
  0.785358473967853     
 -4.372729151287793E-002
  0.115834229805255     
  0.107459535407368     
  0.417618583762549     
  0.410987145734073     
  0.692843560933027     
  0.689909908755808     
  0.205554395525420     
  0.215186097611595     
  0.123042923462114     
  0.131037558808914     
 -0.398777870800674     
 -0.256281996188457     
 -0.246517594641589     
  0.189939736597510     
  0.200485642138497     
 -4.933306675937303E-002
  0.138943101780830     
  0.147500308702476     
  0.183857352507695     
  0.174443379550272     
  0.432986847916952     
  0.426385458484555     
  0.154598131605038     
  0.166103999854057     
  0.677917617146933     
  0.674554578172665     
  0.448564464821262     
  0.442269811278202     
  0.662339825899436     
  0.658730780306610     
  0.459031383631340     
  0.465351106672168     
  0.647738100133729     
  0.643727108639830     
 -6.118393557979227E-002
  0.482932839735967     
  0.488946119368472     
  0.627507793726538     
  0.631736537491705     
  0.616125587442175     
  0.611466794052707     
  0.510224380797430     
  0.516011362356051     
  0.592686073150613     
  0.587695822795100     
 -6.859959961730526E-002
 -0.152882331156347     
 -0.142690796652871     
  0.543382934618214     
  0.537794050485524     
  0.568651103494584     
  0.563182525325466     
  0.804531736023349     
  0.764719534579560     
 -0.312761577883493     
  0.805576238498090     
 -0.410992973063338     
 -0.405626431913757     
 -0.402415696891087     
 -2.671227427086953E-002
 -3.082480752400540E-002
 -0.176780604272205     