 TITLE="euler solver on unstructured grid" 
 VARIABLES= "X" "Y"  "P" "Rou" "U"  "V"  "nuT"
 ZONE NODES=        5306  ELEMENTS=       10382  ZONETYPE=FETRIANGLE
 DATAPACKING=BLOCK
 VARLOCATION=([3-7]=CELLCENTERED)
 -0.272886517545716     
 -0.265331386645110     
 -0.257506399549183     
 -0.249636407589911     
 -0.241742745551969     
 -0.233833716702904     
 -0.225913587999651     
 -0.217984896551739     
 -0.207402393859787     
 -0.196811174775880     
 -0.186210998809598     
 -0.175604076438433     
 -0.164992358662765     
 -0.154374538252944     
 -0.143752162578286     
 -0.133126721346532     
 -0.122496561358548     
 -0.111862999337332     
 -0.101227323175092     
 -9.058773551874597E-002
 -7.994543776813053E-002
 -6.930163132308292E-002
 -5.865443233815075E-002
 -4.382136806510414E-002
 -2.898429631223386E-002
 -1.414353421823095E-002
  7.016583241000215E-004
  1.554908033061569E-002
  3.039947190851150E-002
  4.525268890383696E-002
  6.010855833185148E-002
  7.496690720781449E-002
  8.982762020856551E-002
  0.104691523933670     
  0.119556532722146     
  0.134423530835139     
  0.149292402949488     
  0.164163091403613     
  0.179035452043564     
  0.193909427207760     
  0.208785929988138     
  0.223662932385295     
  0.238541318660376     
  0.253421031151802     
  0.268302041028783     
  0.283184290629737     
  0.298067693462296     
  0.312953249110765     
  0.327838900744951     
  0.342725590287581     
  0.357613317738654     
  0.372502025436591     
  0.387391684550601     
  0.402282295080684     
  0.417174827780357     
  0.432067254650216     
  0.446960575274569     
  0.461854760822624     
  0.476749782463592     
  0.491645669028264     
  0.506542420516638     
  0.521441007682231     
  0.536339431356431     
  0.551238719954334     
  0.566138844645150     
  0.581039863090459     
  0.595941717628680     
  0.610844494752185     
  0.625749165214489     
  0.640653729846980     
  0.655559274726334     
  0.670465771021762     
  0.685373247564053     
  0.700281762014787     
  0.715191314373965     
  0.726697788824835     
  0.715355765200687     
  0.700563669480370     
  0.685770535851610     
  0.670976364314406     
  0.656181212530339     
  0.641385109330199     
  0.626588025883195     
  0.611789049097392     
  0.596990178141402     
  0.582190384600130     
  0.567389754965944     
  0.552588231577265     
  0.537785872095673     
  0.522982647690378     
  0.508177587607865     
  0.493372691016744     
  0.478566929501921     
  0.463760303063395     
  0.448952840531956     
  0.434144513076813     
  0.419335291867178     
  0.404524177318744     
  0.389713139769333     
  0.374901150803848     
  0.360088210422290     
  0.345274289793869     
  0.330459331257004     
  0.315643334811696     
  0.300825243212058     
  0.286006997965122     
  0.271187599486582     
  0.256366961284067     
  0.241545025695999     
  0.226721763891586     
  0.211897118209248     
  0.197069973741519     
  0.182242300826220     
  0.167413013386677     
  0.152582053761307     
  0.137749277796162     
  0.122914627829660     
  0.108077988538641     
  9.323824501563842E-002
  7.839730993689498E-002
  6.355401073336339E-002
  4.870823208188334E-002
  3.385980099771423E-002
  1.900854449611547E-002
  4.154318423136554E-003
 -1.070413628263973E-002
 -2.556502226813140E-002
 -4.042959859475565E-002
 -5.529818240120361E-002
 -6.597611500838080E-002
 -7.665544098682976E-002
 -8.733827482832368E-002
 -9.802381876408688E-002
 -0.108711275025344     
 -0.119402844596237     
 -0.130097816200363     
 -0.140795507392104     
 -0.151498263309556     
 -0.162205574491844     
 -0.172916989139673     
 -0.183635198360617     
 -0.194360153986445     
 -0.205092067326034     
 -0.215834696226192     
 -0.223899353680209     
 -0.231972573878885     
 -0.240056893931749     
 -0.248156580795735     
 -0.256279937738392     
 -0.264448299544393     
  -10.5570374822363     
  -9.55745317586572     
  -8.55786886949517     
  -7.55828456312462     
  -6.55870025675407     
  -5.55911595038352     
  -4.55953164401297     
  -3.55994733764242     
  -2.56036303127187     
  -1.56077872490131     
 -0.561194418530764     
  0.438389887839788     
   1.43797419421034     
   2.43755850058089     
   3.43714280695144     
   4.43672711332199     
   5.43631141969254     
   6.43589572606310     
   7.43548003243365     
   8.43506433880420     
   9.43464864517475     
   9.46347943527325     
   9.49231022537176     
   9.52114101547026     
   9.54997180556877     
   9.57880259566727     
   9.60763338576578     
   9.63646417586428     
   9.66529496596279     
   9.69412575606129     
   9.72295654615980     
   9.75178733625830     
   9.78061812635681     
   9.80944891645531     
   9.83827970655381     
   9.86711049665232     
   9.89594128675082     
   9.92477207684933     
   9.95360286694783     
   9.98243365704634     
   10.0112644471448     
   9.01168014077429     
   8.01209583440374     
   7.01251152803319     
   6.01292722166264     
   5.01334291529209     
   4.01375860892154     
   3.01417430255098     
   2.01458999618043     
   1.01500568980988     
  1.542138343933108E-002
 -0.984162922931220     
  -1.98374722930177     
  -2.98333153567232     
  -3.98291584204287     
  -4.98250014841342     
  -5.98208445478398     
  -6.98166876115453     
  -7.98125306752508     
  -8.98083737389563     
  -9.98042168026618     
  -10.0092524703647     
  -10.0380832604632     
  -10.0669140505617     
  -10.0957448406602     
  -10.1245756307587     
  -10.1534064208572     
  -10.1822372109557     
  -10.2110680010542     
  -10.2398987911527     
  -10.2687295812512     
  -10.2975603713497     
  -10.3263911614482     
  -10.3552219515467     
  -10.3840527416452     
  -10.4128835317438     
  -10.4417143218423     
  -10.4705451119408     
  -10.4993759020393     
  -10.5282066921378     
 -0.222744518680842     
 -0.220363611340681     
 -0.213664546076285     
 -0.211098863902166     
 -0.229125597440454     
 -0.231315074469770     
 -0.219523830691930     
 -0.216747442654535     
 -0.201021204050672     
 -0.203767865488700     
 -0.238164834476290     
 -0.240138237727331     
 -0.228018892904739     
 -0.225457256182286     
 -0.210521277599971     
 -0.207517736637791     
 -0.249266465494096     
 -0.247504424382605     
 -0.190614870544098     
 -0.193523372560847     
 -0.237190962110711     
 -0.234875151003629     
 -0.275671684176286     
 -0.275377681821938     
 -0.256796037134546     
 -0.258450652919817     
 -0.217450258867366     
 -0.214264436490929     
 -0.200646466286760     
 -0.197430125629801     
 -0.224659084285528     
 -0.221750485440102     
 -0.282585982740570     
 -0.282299200536098     
 -0.180186394331244     
 -0.183234022309292     
 -0.267283774582811     
 -0.265759732834979     
 -0.283565506123358     
 -0.282333785251949     
 -0.245429956920673     
 -0.247425858009739     
 -0.289425278789937     
 -0.207996768689190     
 -0.204516784907632     
 -0.274824558658225     
 -0.273989210378028     
 -0.169886732576088     
 -0.173062846232906     
 -0.291573134076022     
 -0.190437705983067     
 -0.187046850421011     
 -0.232588151754010     
 -0.229844950381962     
 -0.291090593805499     
 -0.225616711993349     
 -0.222401992591538     
 -0.159548709354839     
 -0.162856313246891     
 -0.256392700310653     
 -0.258146785677785     
 -0.291573198581460     
 -0.216269530204974     
 -0.212611761022482     
 -0.292711225663836     
 -0.197563855564594     
 -0.193842065402203     
 -0.148897849788084     
 -0.152333146654790     
 -0.180540332044273     
 -0.177013086109239     
 -0.283911757582376     
 -0.266645680281146     
 -0.268802720836910     
 -0.243559780473582     
 -0.241186866829191     
 -0.299459948905391     
 -0.279555752986171     
 -0.137937393930508     
 -0.141483817670028     
 -0.301295337121378     
 -0.301535482460936     
 -0.275514812537594     
 -0.205424895803288     
 -0.201402380421913     
 -0.171131981649828     
 -0.167449581064134     
 -0.130482933699822     
 -0.126844582284575     
 -0.226237734861476     
 -0.222543167593313     
 -0.187063526956789     
 -0.183181369127554     
 -0.292697063087445     
 -0.236351955258745     
 -0.233347736798808     
 -0.115771035510573     
 -0.119484150014131     
 -0.256144927223640     
 -0.254405390817888     
 -0.157359934775425     
 -0.161231580559788     
 -0.302820640674544     
 -0.292168873406985     
 -0.302814350352309     
 -0.104804952981655     
 -0.108585010185478     
 -0.214752715680619     
 -0.210499586022642     
 -0.189453082285432     
 -0.193726234032525     
 -0.146258907717609     
 -0.150297299257273     
 -0.302472062240410     
 -0.178270602110253     
 -0.174323015274321     
 -9.388667716395298E-002
 -9.773305010242499E-002
 -0.284026026065439     
 -0.311462542316853     
 -0.268675340467814     
 -0.267511218156227     
 -0.309607287595871     
 -0.311154713864561     
 -0.304990215420515     
 -0.134748348654531     
 -0.138916454064623     
 -0.280581658895430     
 -8.319757044865689E-002
 -8.709673399955685E-002
 -0.312835438840666     
 -0.314410539170751     
 -0.166571004425291     
 -0.170800923944729     
 -7.274783597298165E-002
 -7.673601225949161E-002
 -0.197460629700356     
 -0.202118939674206     
 -0.315518006441664     
 -0.123135098675276     
 -0.127404913201752     
 -0.277819547306802     
 -0.251509618194049     
 -0.249157358850583     
 -0.225834437577790     
 -0.221455322135721     
 -0.181774656495621     
 -0.177400090496352     
 -0.290067410746575     
 -6.158602277149842E-002
 -6.571516775582938E-002
 -0.238433038138186     
 -0.234892804452535     
 -0.116097154312535     
 -0.111758877635318     
 -0.155449095076657     
 -0.159953365824954     
 -0.293295268301255     
 -5.295126705294979E-002
 -4.868341163301047E-002
 -0.319000623506506     
 -0.314425684530948     
 -0.100714845848461     
 -0.105139190828584     
 -0.322537358998118     
 -0.212476609932617     
 -0.207487055926964     
 -0.143188360679122     
 -0.147865085782072     
 -3.881643140922271E-002
 -3.442248957224957E-002
 -0.300188005163998     
 -0.183416183031543     
 -0.188314683866008     
 -0.324468935187164     
 -0.267394063121790     
 -0.266676198774034     
 -8.928242549167723E-002
 -9.380531740477061E-002
 -0.306898963474370     
 -2.414547323914778E-002
 -1.964950564739863E-002
 -0.325841017491299     
 -0.135982839432625     
 -0.131166202905877     
 -7.932075538578828E-002
 -8.382314683950069E-002
 -0.330409503428351     
 -0.280814972222720     
 -0.327794743888397     
 -0.172404081377953     
 -0.167455250235442     
 -0.283024527146373     
 -9.142682751945217E-003
 -4.586448160384627E-003
 -6.980180412049024E-002
 -7.459387178988057E-002
 -0.123502598886120     
 -0.118574054882896     
 -0.197889237743672     
 -0.192483842221491     
  6.042912474986893E-003
  1.059692281426102E-002
 -0.313349265113244     
 -0.233980546667911     
 -0.238389087947165     
 -0.224532823873928     
 -0.219285180222970     
 -5.706707816674136E-002
 -6.212527403761569E-002
 -0.252080045660028     
 -0.248813363383532     
 -0.321547515929671     
  2.574168863133040E-002
  2.127904057594491E-002
  0.320812567666784     
  0.324195289705266     
 -0.107616566931607     
 -0.112521874643919     
  0.335512294403330     
  0.338870698961196     
  0.306205931340552     
  0.309578138600250     
  3.647591694029372E-002
  4.075041731658405E-002
  0.725844442317214     
  0.727119028877132     
 -0.151888537349153     
 -0.157102539954944     
 -0.294096285783566     
 -4.336165751577189E-002
 -4.865820125596301E-002
  0.350339756376688     
  0.353647138344119     
  0.291585456941195     
  0.294916461447331     
 -0.334369525909431     
  5.158905261202178E-002
  5.564579127790079E-002
  0.368495404838009     
  0.365253562886225     
 -0.328055795765935     
  0.276877378768868     
  0.280163842339161     
  0.383380745607283     
  0.380208375101281     
  7.053697654862764E-002
  6.661982320564051E-002
  0.710968898702146     
  0.712445072856451     
  0.262083143109750     
  0.265366109596169     
  0.398289570102714     
  0.395185511448458     
  0.695643346141853     
  0.697227731019735     
  0.247230039494590     
  0.250569865892179     
  8.160030686844691E-002
  8.549285243289997E-002
  0.413222723136601     
  0.410185615944010     
  0.232333399043301     
  0.235766340692707     
  0.680339392938452     
  0.681999252164478     
  9.657201619943001E-002
  0.100506454714227     
  0.428184303989009     
  0.425215803884321     
  0.217393015123531     
  0.220921256870207     
  0.665135994436921     
  0.666862620513895     
  0.111574286757252     
  0.115552838964877     
  0.202396142068501     
  0.206009872831963     
  0.443164979116012     
  0.440270415048721     
  0.126639804878582     
  0.130622708031319     
  0.650007737497583     
  0.651802386320931     
  0.187326559645251     
  0.191020193636450     
  0.141782154186706     
  0.145718928959095     
  0.172179340919592     
  0.175953958095984     
  0.458119601974061     
  0.455307292857044     
  0.156979796329988     
  0.160838751010232     
  0.634907401483298     
  0.636773357651660     
  0.472985978132520     
  0.470262847503489     
  0.619802401844346     
  0.621741648598095     
 -9.701282325256459E-002
 -0.102164854512893     
 -0.337824602129969     
  0.485117931445493     
  0.487750426471855     
 -0.264687116997097     
 -0.266379759566206     
  0.604698125682852     
  0.606710098429549     
  0.502458459616499     
  0.499913704667221     
  0.591707638343586     
  0.589622872802075     
  0.517168335048630     
  0.514706444749531     
  0.576727889108157     
  0.574567780689604     
  0.531930653884523     
  0.529546673911005     
  0.561742905679016     
  0.559506368940405     
  0.544478831251202     
  0.546789102880415     
 -2.891449253718113E-002
 -3.442932189180650E-002
 -0.335371118894692     
 -0.327711503072710     
 -0.297566183998049     
 -0.144944979175019     
 -0.139663601446812     
 -0.176239977399868     
 -0.181879288657130     
 -0.209568308294541     
 -0.203710075526230     
 -0.337313640803847     
 -0.342031381821321     
 -8.164428218115474E-002
 -8.696405259904273E-002
 -1.377567365643518E-002
 -1.945332628263520E-002
 -0.341771601887294     
 -0.308212821892702     
  0.740989578510110     
  0.741805679282016     
 -0.346769821317939     
 -0.341923493698841     
 -0.133296055754897     
 -0.127748732032329     
 -3.956688235491675E-003
 -0.280638653939379     
  1.787001488490641E-003
 -0.342788332816938     
  0.741315934720858     
 -0.281159590001534     
 -0.161241251941906     
 -0.166941287680406     
 -0.350882713295429     
 -6.654450500509609E-002
 -7.232039232103292E-002
  1.173021806897762E-002
  1.740468917162455E-002
 -0.311872414181975     
 -0.110095419735436     
 -0.115773599465191     
  0.738838228726429     
 -0.232248485034602     
 -0.237686866628456     
 -5.253848044763561E-002
 -5.865781249122038E-002
 -0.323218418767861     
 -0.186578894746395     
 -0.192847165680725     
  3.275924920388052E-002
  0.318105745685758     
  0.314016350255199     
  0.332483879062334     
  0.328340728090191     
  2.738464896214520E-002
  0.299798882160160     
  0.303754870762035     
  0.343001293340136     
  0.347131760373455     
  4.771833152798534E-002
  4.286598258522163E-002
 -0.223046666664658     
 -0.216796409148234     
 -0.251554864265126     
 -0.247137238767758     
  0.285384888053198     
  0.289143837059629     
  0.357911599298394     
  0.361987985290121     
  5.813535103461709E-002
  6.253952895185383E-002
  0.757681713556003     
  0.274337888846168     
  0.270737212371520     
  0.376931577284367     
  0.372920760595049     
 -0.348583635772041     
  0.757287133146442     
  0.722519503493306     
  0.725256709073919     
  7.325161003024752E-002
  7.752726070805313E-002
  0.259547180125441     
  0.255949203562165     
  0.391918602569421     
  0.387968650528317     
  0.706427949783910     
  0.709272521079229     
  0.241073779998046     
  0.244804633190622     
  0.403047359126567     
  0.406944493681707     
 -3.866695416161006E-002
 -4.513326688547969E-002
  9.268825273468864E-002
  8.830608135490860E-002
  0.693414430162025     
  0.690534862789060     
  0.230011475435732     
  0.226122592655102     
  0.418179255982447     
  0.422027084534321     
  0.107928243352485     
  0.103383571105296     
  0.677821186609160     
  0.674927343216043     
  0.215094300947216     
  0.211078291098329     
  0.123210388123343     
  0.118563372194467     
  0.437183338385571     
  0.433389725615292     
 -0.294477624337657     
  0.659542383498408     
  0.662455137773389     
  0.200026478590898     
  0.195901233143204     
  0.133910100804348     
  0.138537098390949     
 -0.144373094610841     
 -0.150491225951474     
  0.184784608635737     
  0.180548280802913     
  0.149429025445000     
  0.153934717051728     
  0.452381120761738     
  0.448655826352874     
  0.169386169707374     
  0.165024639194851     
  0.644258387421575     
  0.647200965801807     
  0.463815031342687     
  0.467451951920895     
  0.631952481123314     
  0.628970919591490     
 -0.353605459481995     
  0.478709299202263     
  0.482249252793683     
  0.616655681362364     
  0.613632518775371     
  0.496853948609240     
  0.493403818929680     
  0.598325834914950     
  0.601386309342268     
 -0.265992680717025     
 -0.262951840045767     
  0.511414456436025     
  0.508042919985947     
  0.583140507129441     
  0.586243205247144     
  0.522728185064817     
  0.526033645101628     
  0.571090571207972     
  0.567931836465435     
  0.537560268368305     
  0.540812901390730     
  0.555864653855097     
  0.552655059866280     
  0.755702014425904     
 -0.343116848007117     
 -0.354248311165440     
 -0.295593907120524     
 -3.054706778245335E-002
 -2.373989986200990E-002
 -9.889303134545949E-002
 -9.282572940931665E-002
 -0.326755125803659     
 -0.358769068238602     
 -0.339331669605990     
 -0.166273048215588     
 -0.172790120509464     
 -0.206449711851654     
 -0.199611380187472     
 -0.353896378484318     
 -1.468396578639335E-002
 -7.683475771164242E-003
  0.756898709328578     
  0.752965246248868     
 -0.308779326395471     
 -0.363829087334652     
 -8.330941615177756E-002
 -7.685866171131585E-002
 -0.356833000041684     
  1.580789547832161E-003
 -0.279258786212531     
 -0.129127299306327     
 -0.122694277217868     
  8.631710804312956E-003
 -0.358688461198819     
 -0.358533100912187     
 -0.280436818767532     
  0.739450362820711     
 -0.368455606484623     
 -6.845115555430790E-002
 -6.149655044879403E-002
 -0.238256079284810     
 -0.231694918455271     
  2.477814046951625E-002
  1.787042550085103E-002
 -0.310000393253423     
 -0.342624102647887     
  0.735283862403388     
 -0.356775296521619     
  0.326119885507914     
  0.321218435030776     
  0.312445796522668     
  0.307712067804400     
  4.003146496773294E-002
  0.771124934605713     
  3.391766324861016E-002
  0.340418026585032     
  0.335460320046060     
  0.293892487208652     
  0.298286368228864     
  0.350407968649261     
  0.355317464029982     
  0.774626413372815     
  5.445605177369899E-002
  4.953913099907489E-002
 -4.824861606088349E-002
 -5.546757135262571E-002
  0.279435096865386     
  0.283353931608505     
  0.365501373524219     
  0.370336269242498     
  0.773361122080475     
 -0.323855737270330     
  6.480913253099359E-002
  6.922863248838722E-002
 -0.363995155891286     
  0.268405577824607     
  0.264721686682798     
  0.385401402074237     
  0.380629035382558     
  0.717954147973781     
  0.722195472217567     
  0.253752548779384     
  0.249886587430830     
  8.455641920596214E-002
  7.991900582460397E-002
  0.400496558332197     
  0.395765054968960     
 -0.181153661653009     
 -0.188377036892603     
  0.701092877927637     
  0.705304304489462     
  0.234962559667318     
  0.239133327976700     
 -0.104309378155565     
 -0.111017617802277     
  9.500737979221406E-002
  0.100002190762514     
  0.774543158704094     
  0.410943066624651     
  0.415649280238599     
  0.689029049909619     
  0.684880526064601     
 -0.244556792462856     
 -0.250118643364174     
  0.224298370687466     
  0.219936090861542     
  0.110194090141688     
  0.115497900149480     
  0.426238448534754     
  0.430920852015217     
  0.209242816603983     
  0.204756486794590     
  0.669196316507825     
  0.673299112797183     
  0.131018539055421     
  0.125612323659185     
  0.193944147268051     
  0.189327014602650     
  0.141387818980310     
  0.146619175680854     
  0.173541677670468     
  0.178305259093526     
  0.446370427253365     
  0.441725838566747     
  0.157463180455375     
  0.162418756901200     
  0.653762650876309     
  0.657845167872753     
 -0.372440402082652     
 -0.221583259944018     
 -0.214204231328501     
  0.461952415976525     
  0.457377219777097     
  0.642450962578636     
  0.638367241582571     
  0.476985893582832     
  0.472530880858436     
  0.626942190682988     
  0.622844629367078     
 -0.370037211881193     
  0.491434908939645     
  0.487080112046257     
 -0.359746671024728     
  0.607124023797370     
  0.611231322844458     
 -4.326999731702565E-002
 -3.536324436502449E-002
  0.505788151430121     
  0.501514071155062     
  0.591695650413908     
  0.595783022944404     
  0.520158602172783     
  0.515944742181250     
  0.580764318892115     
  0.576650749878198     
  0.530519773220218     
  0.534694626516043     
  0.565192010210799     
  0.561018795691388     
  0.545382010705655     
  0.549545166318889     
 -0.294449264156639     
 -0.151002054870182     
 -0.158037695649517     
  0.768003455496218     
 -0.264825977129738     
 -0.260212243084112     
 -9.427007609435097E-002
 -8.715589347180079E-002
 -0.293514989365966     
 -2.655888587285558E-002
 -1.820694193097101E-002
 -0.359824863704717     
  0.755034006584248     
 -0.134538797719538     
 -0.141684366562766     
 -0.375967368091829     
 -0.324897441360900     
 -0.340304808329382     
 -0.370049906816167     
  0.773701797700567     
 -0.375653368369631     
 -9.422867197023834E-003
 -9.727579666684856E-004
 -7.914305405021729E-002
 -0.373192621765588     
 -7.162815328748402E-002
  0.749194838770673     
 -0.163344572145016     
 -0.170868101146498     
 -0.195212482948276     
 -0.203103314412534     
 -0.381780560746820     
 -0.308198463768030     
 -0.372452859697801     
 -0.280434339879249     
 -0.277511118035453     
 -0.375994118822859     
 -0.230879926633110     
 -0.238800917151648     
  7.696011833495163E-003
  1.630057931679485E-002
  0.787139206181603     
 -0.122559419760387     
 -0.115178182405713     
 -0.377789222012486     
  0.736366345545670     
 -0.387230709350423     
 -0.358398658412976     
  3.336585893409366E-002
  2.467195534241411E-002
  0.320199801173470     
  0.314617518588873     
  0.332981515918556     
  0.327139642517598     
 -6.203222832160159E-002
  0.308128761384181     
  0.302722381813556     
  4.693884408111144E-002
  0.792585813764471     
 -0.307137249219421     
 -0.341045764211493     
 -5.332098137194276E-002
  0.730517995745999     
  4.095011380684629E-002
  0.348382787971189     
  0.342612529878960     
  0.292814987370294     
  0.288312571608498     
  0.789990511336534     
  6.011037231282956E-002
  0.357902745377002     
  0.363552016103508     
  5.635378391710587E-002
  0.273589541400290     
  0.277062585869725     
  0.378728982941386     
  0.373166507476908     
  7.601681255368013E-002
  7.147619494505698E-002
  0.262309272844522     
  0.258774687297564     
 -0.380315669487139     
 -0.391984805186364     
  0.393899364581282     
  0.388374249997609     
  0.712107515546853     
  0.717835445205400     
  0.248245855022080     
  0.243888519377161     
  0.792800757761585     
  9.171400625219304E-002
  8.650742155620771E-002
  0.409072821797745     
  0.403546285488799     
  0.228921552416673     
  0.233614622966118     
  0.791938031319443     
  0.694816996831160     
  0.700338356639167     
  0.101602266591186     
  0.107472717486808     
 -0.105597614863994     
  0.218614855638563     
  0.213825404742229     
 -9.801039451413562E-002
  0.418800409177289     
  0.424346909237330     
  0.116888744171510     
  0.123205448001007     
  0.678826806645240     
  0.684207193838219     
  0.203391797385805     
  0.198510759891626     
 -0.146505450307285     
 -0.154320894682791     
  0.138899793493432     
  0.132649006077108     
  0.187816076754699     
  0.182726223431299     
  0.154773784186665     
  0.149208959687293     
  0.434312920486928     
  0.439869144693368     
  0.171372325655953     
  0.166160576563364     
 -0.323034146769112     
  0.663305628832860     
  0.668602946206434     
  0.772010319516580     
  0.455846437721353     
  0.450304715561134     
  0.647934534401069     
  0.653188252071591     
  0.472618701899626     
  0.467159069449168     
  0.637668302378023     
  0.632428530191504     
  0.486157649761976     
  0.480976250188836     
 -0.211009159052553     
 -0.219629221014220     
  0.621755531311556     
  0.616514548758360     
 -0.251451531550006     
 -0.258066709417173     
  0.495279483868494     
  0.500530971433861     
  0.599681385744259     
  0.604900821642323     
  0.514297843231098     
  0.509265892746521     
  0.585188585531748     
  0.590186120651687     
  0.528688849253656     
  0.523528122930377     
  0.570858529055600     
  0.576089398592087     
  0.537903543294147     
  0.542899232569391     
  0.552560327361686     
  0.557784617035816     
 -0.175899787190459     
 -0.184070137976919     
 -0.387143772319129     
 -4.015123932574035E-002
 -3.017516498311745E-002
  0.783747693883490     
 -0.294107357957905     
 -0.378504989739247     
  0.764239817125225     
 -8.782615425947485E-002
 -7.942862020190912E-002
 -0.378072066418715     
  0.791517301417991     
 -0.358830307419907     
 -0.321549646700347     
 -0.291422975279739     
 -2.156788664493405E-002
 -0.393844186679543     
 -1.149543837643844E-002
  0.752216729747935     
 -0.127527239301597     
 -0.135579418282174     
 -0.388966445183429     
 -0.385896069979917     
 -0.340166125296141     
 -0.395976766589393     
 -0.391180444007631     
  6.424100843880434E-003
 -3.299045537722727E-003
 -0.400989697239366     
  0.744506346607451     
  0.803401155967741     
 -0.394853340009508     
 -0.229836245335716     
 -0.239363883872876     
 -0.304697534182034     
 -0.159240938456540     
 -0.167521867386093     
 -0.189380276064604     
 -0.198327004358024     
 -0.397316123417825     
 -0.112420199150512     
 -0.104057968722647     
 -0.282534491809815     
 -0.277592198286351     
  1.448395998089132E-002
 -0.399255254012862     
  2.538133711097020E-002
  0.790108040873403     
 -0.407402821501623     
  0.731858249875508     
  0.811314161496303     
  4.657035546337276E-002
  3.283886112528233E-002
  0.806979604036905     
  0.321238816592537     
  0.314278020390517     
  0.341419085968300     
  0.334610071353251     
  0.303686358262272     
  0.297517292510632     
 -0.359156320007444     
  4.812604431838178E-002
  0.356490750648339     
  0.350091709441421     
  0.724348178431652     
  0.286273794141357     
  0.282734826990349     
 -0.378187496722758     
 -0.338233326674928     
  6.299339052423425E-002
  0.365556263888471     
  0.371934456351200     
  0.267592578246180     
  0.269122982125795     
  6.726079028246147E-002
  0.812011639250424     
  8.304265736969678E-002
  7.807209530163371E-002
  0.257173979421659     
  0.253016783271059     
 -0.301242005947757     
  0.387128141643143     
  0.380942296410599     
  0.809828029708967     
  0.243397210371869     
  0.237824158010179     
  9.279249227236701E-002
  9.900920358114569E-002
  0.402448553068038     
  0.396095958481356     
  0.704135002831256     
  0.711289344124939     
 -0.412909510735825     
  0.223147609225362     
  0.227898566952866     
  0.811548411731353     
  0.780250082547198     
 -5.223181482370180E-002
  0.108077008360294     
  0.115228236899614     
  0.411195539248042     
  0.417482687936958     
  0.688018301094022     
  0.694648033055413     
  0.213135126867890     
  0.207726491999820     
  0.130942234915142     
  0.123080873476267     
 -0.398819480297165     
 -0.247054490953177     
 -0.255657774096505     
  0.197479451391912     
  0.192733367899534     
 -4.077323198172257E-002
  0.146674353071067     
  0.139628944531047     
  0.176091204960717     
  0.182273073004287     
  0.426462951618521     
  0.432981192694507     
  0.162502900992863     
  0.157910205657791     
  0.672847995988308     
  0.679557461797703     
  0.442244117525526     
  0.448654302285315     
  0.657322561965402     
  0.663705033781120     
  0.465530250708794     
  0.458911525663122     
  0.642436440008523     
  0.648998973814981     
 -7.004260113932427E-002
  0.489168441269279     
  0.482759835807369     
  0.632777228653508     
  0.626454467911741     
  0.610506996085880     
  0.617082524157621     
  0.516285837542239     
  0.509991027786236     
  0.586990367728120     
  0.593404686748037     
 -5.965367930336288E-002
 -0.143393910784581     
 -0.152185331425269     
  0.537451914207672     
  0.543758561435125     
  0.562653273262620     
  0.569204568361886     
  0.799842917295713     
  0.769941174409692     
 -0.320713459901777     
  0.809834234669342     
 -0.417717611708593     
 -0.398624674161300     
 -0.403424371460650     
 -3.553264517681690E-002
 -2.205890909103545E-002
 -0.167053152741573     