 TITLE="euler solver on unstructured grid" 
 VARIABLES= "X" "Y"  "P" "Rou" "U"  "V" "muT" "K" "omg"
 ZONE NODES=        5306  ELEMENTS=       10382  ZONETYPE=FETRIANGLE
 DATAPACKING=BLOCK
 VARLOCATION=([3-9]=CELLCENTERED)
  0.000000000000000E+000
  8.000000000000000E-003
  1.600000000000000E-002
  2.400000000000000E-002
  3.200000000000000E-002
  4.000000000000000E-002
  4.800000000000000E-002
  5.600000000000000E-002
  6.666700000000000E-002
  7.733300000000000E-002
  8.799999999999999E-002
  9.866700000000000E-002
  0.109333000000000     
  0.120000000000000     
  0.130667000000000     
  0.141333000000000     
  0.152000000000000     
  0.162667000000000     
  0.173333000000000     
  0.184000000000000     
  0.194667000000000     
  0.205333000000000     
  0.216000000000000     
  0.230857000000000     
  0.245714000000000     
  0.260571000000000     
  0.275429000000000     
  0.290286000000000     
  0.305143000000000     
  0.320000000000000     
  0.334857000000000     
  0.349714000000000     
  0.364571000000000     
  0.379429000000000     
  0.394286000000000     
  0.409143000000000     
  0.424000000000000     
  0.438857000000000     
  0.453714000000000     
  0.468571000000000     
  0.483429000000000     
  0.498286000000000     
  0.513143000000000     
  0.528000000000000     
  0.542857000000000     
  0.557714000000000     
  0.572571000000000     
  0.587429000000000     
  0.602286000000000     
  0.617143000000000     
  0.632000000000000     
  0.646857000000000     
  0.661714000000000     
  0.676571000000000     
  0.691429000000000     
  0.706286000000000     
  0.721143000000000     
  0.736000000000000     
  0.750857000000000     
  0.765714000000000     
  0.780571000000000     
  0.795429000000000     
  0.810286000000000     
  0.825143000000000     
  0.840000000000000     
  0.854857000000000     
  0.869714000000000     
  0.884571000000000     
  0.899429000000000     
  0.914286000000000     
  0.929143000000000     
  0.944000000000000     
  0.958857000000000     
  0.973714000000000     
  0.988571000000000     
   1.00000000000000     
  0.988571000000000     
  0.973714000000000     
  0.958857000000000     
  0.944000000000000     
  0.929143000000000     
  0.914286000000000     
  0.899429000000000     
  0.884571000000000     
  0.869714000000000     
  0.854857000000000     
  0.840000000000000     
  0.825143000000000     
  0.810286000000000     
  0.795429000000000     
  0.780571000000000     
  0.765714000000000     
  0.750857000000000     
  0.736000000000000     
  0.721143000000000     
  0.706286000000000     
  0.691429000000000     
  0.676571000000000     
  0.661714000000000     
  0.646857000000000     
  0.632000000000000     
  0.617143000000000     
  0.602286000000000     
  0.587429000000000     
  0.572571000000000     
  0.557714000000000     
  0.542857000000000     
  0.528000000000000     
  0.513143000000000     
  0.498286000000000     
  0.483429000000000     
  0.468571000000000     
  0.453714000000000     
  0.438857000000000     
  0.424000000000000     
  0.409143000000000     
  0.394286000000000     
  0.379429000000000     
  0.364571000000000     
  0.349714000000000     
  0.334857000000000     
  0.320000000000000     
  0.305143000000000     
  0.290286000000000     
  0.275429000000000     
  0.260571000000000     
  0.245714000000000     
  0.230857000000000     
  0.216000000000000     
  0.205333000000000     
  0.194667000000000     
  0.184000000000000     
  0.173333000000000     
  0.162667000000000     
  0.152000000000000     
  0.141333000000000     
  0.130667000000000     
  0.120000000000000     
  0.109333000000000     
  9.866700000000000E-002
  8.799999999999999E-002
  7.733300000000000E-002
  6.666700000000000E-002
  5.600000000000000E-002
  4.800000000000000E-002
  4.000000000000000E-002
  3.200000000000000E-002
  2.400000000000000E-002
  1.600000000000000E-002
  8.000000000000000E-003
  -10.0000000000000     
  -9.00000000000000     
  -8.00000000000000     
  -7.00000000000000     
  -6.00000000000000     
  -5.00000000000000     
  -4.00000000000000     
  -3.00000000000000     
  -2.00000000000000     
  -1.00000000000000     
  0.000000000000000E+000
   1.00000000000000     
   2.00000000000000     
   3.00000000000000     
   4.00000000000000     
   5.00000000000000     
   6.00000000000000     
   7.00000000000000     
   8.00000000000000     
   9.00000000000000     
   10.0000000000000     
   10.0000000000000     
   10.0000000000000     
   10.0000000000000     
   10.0000000000000     
   10.0000000000000     
   10.0000000000000     
   10.0000000000000     
   10.0000000000000     
   10.0000000000000     
   10.0000000000000     
   10.0000000000000     
   10.0000000000000     
   10.0000000000000     
   10.0000000000000     
   10.0000000000000     
   10.0000000000000     
   10.0000000000000     
   10.0000000000000     
   10.0000000000000     
   10.0000000000000     
   9.00000000000000     
   8.00000000000000     
   7.00000000000000     
   6.00000000000000     
   5.00000000000000     
   4.00000000000000     
   3.00000000000000     
   2.00000000000000     
   1.00000000000000     
  0.000000000000000E+000
  -1.00000000000000     
  -2.00000000000000     
  -3.00000000000000     
  -4.00000000000000     
  -5.00000000000000     
  -6.00000000000000     
  -7.00000000000000     
  -8.00000000000000     
  -9.00000000000000     
  -10.0000000000000     
  -10.0000000000000     
  -10.0000000000000     
  -10.0000000000000     
  -10.0000000000000     
  -10.0000000000000     
  -10.0000000000000     
  -10.0000000000000     
  -10.0000000000000     
  -10.0000000000000     
  -10.0000000000000     
  -10.0000000000000     
  -10.0000000000000     
  -10.0000000000000     
  -10.0000000000000     
  -10.0000000000000     
  -10.0000000000000     
  -10.0000000000000     
  -10.0000000000000     
  -10.0000000000000     
  5.143110000000000E-002
  5.127620000000000E-002
  6.058560000000000E-002
  6.047370000000000E-002
  4.257540000000000E-002
  4.279290000000000E-002
  5.490350000000000E-002
  5.464260000000000E-002
  7.048030000000000E-002
  7.056150000000000E-002
  3.360640000000000E-002
  3.389360000000000E-002
  4.634880000000000E-002
  4.598610000000000E-002
  6.399059999999999E-002
  6.379490000000000E-002
  2.466420000000000E-002
  2.436250000000000E-002
  8.082190000000000E-002
  8.087930000000000E-002
  3.713260000000000E-002
  3.660650000000000E-002
 -3.089500000000000E-003
 -2.165700000000000E-003
  1.519940000000000E-002
  1.534390000000000E-002
  5.722880000000000E-002
  5.687440000000000E-002
  7.394870000000001E-002
  7.380740000000000E-002
  4.991620000000000E-002
  4.948690000000000E-002
 -9.817200000000000E-003
 -9.246500000000000E-003
  9.119380000000001E-002
  9.123390000000001E-002
  6.335600000000000E-003
  6.393600000000000E-003
 -1.107630000000000E-002
 -8.985699999999999E-003
  2.612030000000000E-002
  2.682490000000000E-002
 -1.650230000000000E-002
  6.678840000000000E-002
  6.652350000000000E-002
 -2.505700000000000E-003
 -5.480000000000000E-004
  0.101438900000000     
  0.101468200000000     
 -1.889310000000000E-002
  8.422760000000000E-002
  8.412920000000000E-002
  4.200440000000000E-002
  4.136930000000000E-002
 -1.791240000000000E-002
  4.918840000000000E-002
  4.860320000000000E-002
  0.111718400000000     
  0.111741800000000     
  1.528020000000000E-002
  1.597960000000000E-002
 -1.806390000000000E-002
  5.869340000000000E-002
  5.824230000000000E-002
 -2.033150000000000E-002
  7.730700000000000E-002
  7.712140000000001E-002
  0.122311700000000     
  0.122331300000000     
  9.418269999999999E-002
  9.411369999999999E-002
 -1.170440000000000E-002
  5.198900000000000E-003
  5.144400000000000E-003
  3.102730000000000E-002
  3.002680000000000E-002
 -2.652410000000000E-002
 -5.860800000000000E-003
  0.133223300000000     
  0.133238500000000     
 -2.799490000000000E-002
 -2.895040000000000E-002
 -3.480400000000000E-003
  6.965840000000000E-002
  6.934040000000000E-002
  0.103665100000000     
  0.103611100000000     
  0.144286900000000     
  0.144277700000000     
  4.888460000000000E-002
  4.814090000000000E-002
  8.786230000000000E-002
  8.773630000000000E-002
 -2.062800000000000E-002
  3.853910000000000E-002
  3.756230000000000E-002
  0.155322700000000     
  0.155323300000000     
  1.835710000000000E-002
  1.689340000000000E-002
  0.113613900000000     
  0.113660600000000     
 -2.917060000000000E-002
 -1.828540000000000E-002
 -3.056450000000000E-002
  0.166266000000000     
  0.166254200000000     
  6.054070000000000E-002
  6.002260000000000E-002
  8.122190000000000E-002
  8.143530000000000E-002
  0.124640200000000     
  0.124678700000000     
 -3.058640000000000E-002
  9.667360000000000E-002
  9.658400000000000E-002
  0.177164300000000     
  0.177135100000000     
 -1.207060000000000E-002
 -3.836140000000000E-002
  5.655500000000000E-003
  3.973500000000000E-003
 -3.682340000000000E-002
 -3.772690000000000E-002
 -3.095540000000000E-002
  0.136096000000000     
  0.136123700000000     
 -6.466700000000000E-003
  0.187841700000000     
  0.187792000000000     
 -4.035270000000000E-002
 -4.231130000000000E-002
  0.104199800000000     
  0.104285600000000     
  0.198266000000000     
  0.198186900000000     
  7.295140000000000E-002
  7.329620000000001E-002
 -4.177480000000000E-002
  0.147670700000000     
  0.147683200000000     
 -6.089900000000000E-003
  2.344780000000000E-002
  2.167530000000000E-002
  4.966290000000000E-002
  4.884920000000000E-002
  9.340590000000000E-002
  9.326669999999999E-002
 -1.832800000000000E-002
  0.209385000000000     
  0.209260100000000     
  3.684130000000000E-002
  3.562530000000000E-002
  0.159019200000000     
  0.159027900000000     
  0.115194500000000     
  0.115269400000000     
 -1.900010000000000E-002
  0.222071500000000     
  0.222251700000000     
 -4.483130000000000E-002
 -4.274340000000000E-002
  0.170048700000000     
  0.170009300000000     
 -4.972210000000000E-002
  6.319089999999999E-002
  6.266010000000000E-002
  0.127382700000000     
  0.127440300000000     
  0.236248400000000     
  0.236484100000000     
 -2.871060000000000E-002
  8.694230000000000E-002
  8.716699999999999E-002
 -5.112550000000000E-002
  7.361400000000000E-003
  4.367500000000000E-003
  0.181458800000000     
  0.181374800000000     
 -3.243350000000000E-002
  0.250955900000000     
  0.251235400000000     
 -5.347650000000000E-002
  0.139387400000000     
  0.139349700000000     
  0.191452100000000     
  0.191333900000000     
 -5.657760000000000E-002
 -6.279000000000000E-003
 -5.586210000000000E-002
  0.103067300000000     
  0.102928200000000     
 -1.170140000000000E-002
  0.265988200000000     
  0.266284800000000     
  0.200870400000000     
  0.200671600000000     
  0.151913000000000     
  0.151906500000000     
  7.790050000000000E-002
  7.755579999999999E-002
  0.281195100000000     
  0.281463300000000     
 -4.212070000000000E-002
  3.609940000000000E-002
  3.731440000000000E-002
  5.137770000000000E-002
  5.060250000000000E-002
  0.213534600000000     
  0.213222200000000     
  2.338450000000000E-002
  2.149390000000000E-002
 -4.691610000000000E-002
  0.296610900000000     
  0.296444700000000     
  0.595673500000000     
  0.595596700000000     
  0.162898100000000     
  0.162868600000000     
  0.610350200000000     
  0.610309100000000     
  0.581092300000000     
  0.580939900000000     
  0.311648600000000     
  0.311626900000000     
  0.999570100000000     
   1.00004200000000     
  0.118386500000000     
  0.118490400000000     
 -1.936270000000000E-002
  0.227188900000000     
  0.226754200000000     
  0.625153800000000     
  0.625122800000000     
  0.566500700000000     
  0.566235700000000     
 -6.006330000000000E-002
  0.326764300000000     
  0.326530000000000     
  0.640010500000000     
  0.640041000000000     
 -5.658240000000000E-002
  0.551823000000000     
  0.551440800000000     
  0.654937600000000     
  0.654966500000000     
  0.341428500000000     
  0.341795100000000     
  0.984786600000000     
  0.985248800000000     
  0.537058700000000     
  0.536603300000000     
  0.669890100000000     
  0.669912300000000     
  0.969528800000000     
  0.969942700000000     
  0.522234400000000     
  0.521769300000000     
  0.356774300000000     
  0.356393500000000     
  0.684868600000000     
  0.684879500000000     
  0.507365400000000     
  0.506928800000000     
  0.954281700000000     
  0.954639300000000     
  0.371743900000000     
  0.371419700000000     
  0.699877400000000     
  0.699875100000000     
  0.492451600000000     
  0.492047200000000     
  0.939130100000000     
  0.939434500000000     
  0.386743200000000     
  0.386482200000000     
  0.477480200000000     
  0.477100100000000     
  0.714907800000000     
  0.714892800000000     
  0.401804300000000     
  0.401571200000000     
  0.924051400000000     
  0.924309400000000     
  0.462434500000000     
  0.462076100000000     
  0.416939500000000     
  0.416689300000000     
  0.447308400000000     
  0.446977900000000     
  0.729915200000000     
  0.729889800000000     
  0.432125600000000     
  0.431834100000000     
  0.908999300000000     
  0.909217500000000     
  0.744836500000000     
  0.744803300000000     
  0.893941000000000     
  0.894124900000000     
  0.173412200000000     
  0.173323300000000     
 -6.481520000000000E-002
  0.759616400000000     
  0.759655700000000     
  5.858700000000000E-003
  8.839600000000000E-003
  0.878881200000000     
  0.879035000000000     
  0.774416800000000     
  0.774371800000000     
  0.863976400000000     
  0.863848500000000     
  0.789177900000000     
  0.789126000000000     
  0.848941400000000     
  0.848835300000000     
  0.803990000000000     
  0.803929200000000     
  0.833902600000000     
  0.833814500000000     
  0.818824900000000     
  0.818897800000000     
  0.241592700000000     
  0.241042800000000     
 -6.274950000000000E-002
 -5.672040000000000E-002
 -2.655660000000000E-002
  0.130672500000000     
  0.130597100000000     
  9.374810000000000E-002
  9.397770000000000E-002
  6.651590000000000E-002
  6.602080000000000E-002
 -6.251400000000000E-002
 -6.855780000000000E-002
  0.188759400000000     
  0.188558000000000     
  0.256698300000000     
  0.256070800000000     
 -6.953510000000000E-002
 -3.328760000000000E-002
   1.01457300000000     
   1.01491900000000     
 -7.281700000000001E-002
 -7.018170000000000E-002
  0.142445700000000     
  0.142396800000000     
  0.271605800000000     
 -5.656500000000000E-003
  0.272243000000000     
 -7.152140000000000E-002
   1.01395100000000     
 -1.037640000000000E-002
  0.108756700000000     
  0.108919600000000     
 -7.643419999999999E-002
  0.203733400000000     
  0.203340000000000     
  0.287317000000000     
  0.287857800000000     
 -4.113060000000000E-002
  0.160031700000000     
  0.160000300000000     
   1.01291200000000     
  3.739010000000000E-002
  3.845160000000000E-002
  0.217672600000000     
  0.217083100000000     
 -4.809960000000000E-002
  8.303800000000000E-002
  8.336920000000000E-002
  0.303221200000000     
  0.589089400000000     
  0.589281500000000     
  0.603500400000000     
  0.603589300000000     
  0.302983600000000     
  0.575091900000000     
  0.574694000000000     
  0.618236000000000     
  0.618177300000000     
  0.318190100000000     
  0.318468600000000     
  5.331050000000000E-002
  5.264280000000000E-002
  2.436850000000000E-002
  2.269830000000000E-002
  0.560713500000000     
  0.560033000000000     
  0.633127200000000     
  0.633066400000000     
  0.333737800000000     
  0.333013400000000     
   1.03053900000000     
  0.545182000000000     
  0.546102100000000     
  0.648047400000000     
  0.648111600000000     
 -7.590160000000000E-002
   1.03066800000000     
  0.996717100000000     
  0.997726400000000     
  0.348853400000000     
  0.348001100000000     
  0.530351700000000     
  0.531349100000000     
  0.663075200000000     
  0.663130900000000     
  0.980713600000000     
  0.981623000000000     
  0.516507400000000     
  0.515570300000000     
  0.678178900000000     
  0.678144100000000     
  0.231482400000000     
  0.230685700000000     
  0.363167200000000     
  0.363908000000000     
  0.965674500000000     
  0.964885800000000     
  0.500737100000000     
  0.501589100000000     
  0.693278400000000     
  0.693271800000000     
  0.378418100000000     
  0.378986600000000     
  0.950005800000000     
  0.949332400000000     
  0.485779500000000     
  0.486577200000000     
  0.393715700000000     
  0.394167900000000     
  0.708476300000000     
  0.708453800000000     
 -1.928410000000000E-002
  0.933997600000000     
  0.934570700000000     
  0.470671700000000     
  0.471431900000000     
  0.409514700000000     
  0.409061100000000     
  0.125435600000000     
  0.125572700000000     
  0.455391600000000     
  0.456108700000000     
  0.425028400000000     
  0.424480700000000     
  0.723727500000000     
  0.723680000000000     
  0.439959400000000     
  0.440609300000000     
  0.918762600000000     
  0.919250200000000     
  0.738792600000000     
  0.738858500000000     
  0.903937400000000     
  0.903523100000000     
 -8.048660000000001E-002
  0.753638500000000     
  0.753717500000000     
  0.888579700000000     
  0.888229900000000     
  0.768379200000000     
  0.768289100000000     
  0.872963100000000     
  0.873255300000000     
  9.707000000000000E-003
  7.089500000000000E-003
  0.782991600000000     
  0.782889300000000     
  0.857816100000000     
  0.858059300000000     
  0.797540200000000     
  0.797658200000000     
  0.842851600000000     
  0.842648300000000     
  0.812341700000000     
  0.812481300000000     
  0.827576000000000     
  0.827407200000000     
   1.02960800000000     
 -7.235870000000000E-002
 -7.927850000000000E-002
 -2.508520000000000E-002
  0.245357000000000     
  0.246345300000000     
  0.177008800000000     
  0.177186100000000     
 -5.627330000000000E-002
 -8.518690000000000E-002
 -6.401300000000000E-002
  0.103275800000000     
  0.103514100000000     
  7.009690000000000E-002
  6.965960000000000E-002
 -8.192500000000000E-002
  0.261283300000000     
  0.262363000000000     
   1.02922100000000     
   1.02740800000000     
 -3.337510000000000E-002
 -8.975850000000000E-002
  0.192678900000000     
  0.193079100000000     
 -8.526160000000001E-002
  0.277588300000000     
 -8.984100000000000E-003
  0.147065800000000     
  0.147001800000000     
  0.278663400000000     
 -8.762000000000000E-002
 -8.619140000000000E-002
 -4.987100000000000E-003
   1.01157800000000     
 -9.386820000000000E-002
  0.207635700000000     
  0.208355900000000     
  3.833960000000000E-002
  3.748080000000000E-002
  0.294818200000000     
  0.293898500000000     
 -3.976400000000000E-002
 -7.240590000000000E-002
   1.00987200000000     
 -8.125330000000000E-002
  0.596733200000000     
  0.596857100000000     
  0.583023800000000     
  0.583366200000000     
  0.310098900000000     
   1.04538600000000     
  0.309950000000000     
  0.611042900000000     
  0.611105300000000     
  0.569591800000000     
  0.568797700000000     
  0.626046200000000     
  0.625964700000000     
   1.04719000000000     
  0.324528900000000     
  0.325567800000000     
  0.221597100000000     
  0.220641000000000     
  0.555179400000000     
  0.553806600000000     
  0.641121100000000     
  0.641015000000000     
   1.04705700000000     
 -4.822660000000000E-002
  0.340835000000000     
  0.339283800000000     
 -9.123260000000000E-002
  0.538818200000000     
  0.540507900000000     
  0.656117900000000     
  0.656222700000000     
  0.992649100000000     
  0.994176300000000     
  0.524129000000000     
  0.525712500000000     
  0.354605400000000     
  0.355945100000000     
  0.671253700000000     
  0.671329800000000     
  8.798739999999999E-002
  8.832020000000000E-002
  0.975860000000000     
  0.977180400000000     
  0.510827200000000     
  0.509467000000000     
  0.165324600000000     
  0.165250600000000     
  0.371037000000000     
  0.370055400000000     
   1.04767500000000     
  0.686478200000000     
  0.686448500000000     
  0.960825800000000     
  0.959700100000000     
  2.487050000000000E-002
  2.620730000000000E-002
  0.494587100000000     
  0.495839500000000     
  0.386230300000000     
  0.385563100000000     
  0.701742600000000     
  0.701764400000000     
  0.479485900000000     
  0.480699400000000     
  0.944063800000000     
  0.945025100000000     
  0.401099700000000     
  0.401657100000000     
  0.464141400000000     
  0.465310000000000     
  0.417439600000000     
  0.416718200000000     
  0.449562600000000     
  0.448458700000000     
  0.717263200000000     
  0.717194900000000     
  0.433509700000000     
  0.432539200000000     
  0.928678500000000     
  0.929502500000000     
 -9.730270000000001E-002
  5.526700000000000E-002
  5.474330000000000E-002
  0.732905100000000     
  0.732801000000000     
  0.914040100000000     
  0.913332600000000     
  0.748016400000000     
  0.747891100000000     
  0.898464600000000     
  0.897859000000000     
 -9.683680000000000E-002
  0.762530500000000     
  0.762388800000000     
 -8.922030000000000E-002
  0.882181400000000     
  0.882693600000000     
  0.232995400000000     
  0.234344000000000     
  0.776938900000000     
  0.776780900000000     
  0.866778600000000     
  0.867203500000000     
  0.791356500000000     
  0.791177700000000     
  0.852130700000000     
  0.851772700000000     
  0.805725900000000     
  0.805932800000000     
  0.836493800000000     
  0.836190200000000     
  0.820569000000000     
  0.820816400000000     
 -1.878840000000000E-002
  0.118296700000000     
  0.118529900000000     
   1.04283600000000     
  1.137010000000000E-002
  9.318300000000000E-003
  0.182084900000000     
  0.182402800000000     
 -2.350190000000000E-002
  0.249807800000000     
  0.251430600000000     
 -8.987560000000000E-002
   1.02680200000000     
  0.134732400000000     
  0.134923600000000     
 -0.102294800000000     
 -5.494690000000000E-002
 -6.443710000000000E-002
 -9.808430000000000E-002
   1.04568800000000     
 -9.992970000000000E-002
  0.267006600000000     
  0.268631900000000     
  0.197246000000000     
 -0.101777200000000     
  0.197908700000000     
   1.02419100000000     
  0.105668600000000     
  0.105974600000000     
  7.355610000000000E-002
  7.395150000000000E-002
 -0.107605500000000     
 -3.230610000000000E-002
 -0.100022000000000     
 -4.498700000000000E-003
 -7.747200000000000E-003
 -0.105119000000000     
  3.776990000000000E-002
  3.832040000000000E-002
  0.284158300000000     
  0.285900200000000     
   1.06178200000000     
  0.154124200000000     
  0.154030500000000     
 -0.107496000000000     
   1.00796000000000     
 -0.112513300000000     
 -8.228940000000000E-002
  0.303001800000000     
  0.301144300000000     
  0.590472400000000     
  0.590582200000000     
  0.603197300000000     
  0.603181200000000     
  0.214587600000000     
  0.578288500000000     
  0.578773300000000     
  0.316669900000000     
   1.06482700000000     
 -3.740840000000000E-002
 -7.139730000000000E-002
  0.215998800000000     
   1.00564200000000     
  0.317405600000000     
  0.618605000000000     
  0.618667900000000     
  0.562876300000000     
  0.564424300000000     
   1.06403900000000     
  0.329757000000000     
  0.633949300000000     
  0.633796700000000     
  0.332799400000000     
  0.549751500000000     
  0.547072200000000     
  0.649009300000000     
  0.649188000000000     
  0.345640500000000     
  0.347919300000000     
  0.532309700000000     
  0.534982200000000     
 -0.107517000000000     
 -0.116684300000000     
  0.664219800000000     
  0.664365800000000     
  0.987314600000000     
  0.989306400000000     
  0.518199500000000     
  0.520139800000000     
   1.06564800000000     
  0.361331900000000     
  0.362954300000000     
  0.679432800000000     
  0.679509900000000     
  0.505217000000000     
  0.503518100000000     
   1.06538800000000     
  0.970061000000000     
  0.971739400000000     
  0.378058500000000     
  0.377100000000000     
  0.171085600000000     
  0.488467400000000     
  0.490166500000000     
  0.171209500000000     
  0.694738000000000     
  0.694746100000000     
  0.393360400000000     
  0.392848800000000     
  0.954108800000000     
  0.955543500000000     
  0.473192200000000     
  0.474901000000000     
  0.122363900000000     
  0.122680000000000     
  0.408559000000000     
  0.409141300000000     
  0.457560900000000     
  0.459169500000000     
  0.424446500000000     
  0.425724200000000     
  0.710223600000000     
  0.710309800000000     
  0.441060300000000     
  0.442659400000000     
 -4.686660000000000E-002
  0.938631700000000     
  0.939872000000000     
   1.04340500000000     
  0.726334400000000     
  0.726183800000000     
  0.923309900000000     
  0.924387000000000     
  0.743177500000000     
  0.742984100000000     
  0.908794200000000     
  0.907857100000000     
  0.756865000000000     
  0.756666600000000     
  5.738930000000000E-002
  5.777760000000000E-002
  0.892807400000000     
  0.891998100000000     
  1.751560000000000E-002
  1.869780000000000E-002
  0.770993800000000     
  0.771228000000000     
  0.875208100000000     
  0.875890300000000     
  0.785114500000000     
  0.784874000000000     
  0.860665100000000     
  0.861209300000000     
  0.799473600000000     
  0.799181800000000     
  0.846464700000000     
  0.846968700000000     
  0.813469200000000     
  0.813785700000000     
  0.828202000000000     
  0.828609800000000     
  9.274820000000000E-002
  9.312710000000000E-002
 -0.113880300000000     
  0.236610100000000     
  0.239044400000000     
   1.05898400000000     
 -1.802450000000000E-002
 -0.108828600000000     
   1.03965700000000     
  0.189055200000000     
  0.189601100000000     
 -0.101725200000000     
   1.06315000000000     
 -8.949150000000000E-002
 -5.215360000000000E-002
 -2.184920000000000E-002
  0.255292500000000     
 -0.120105700000000     
  0.257679900000000     
   1.02340500000000     
  0.141239400000000     
  0.141537500000000     
 -0.116682600000000     
 -0.114152200000000     
 -6.371200000000000E-002
 -0.120056400000000     
 -0.119911300000000     
  0.275574100000000     
  0.273602200000000     
 -0.126731600000000     
   1.02007900000000     
   1.07844600000000     
 -0.124172400000000     
  3.821350000000000E-002
  3.836650000000000E-002
 -2.829470000000000E-002
  0.109353600000000     
  0.109744400000000     
  7.884490000000000E-002
  7.928230000000000E-002
 -0.127260100000000     
  0.164790900000000     
  0.164627100000000     
 -6.018800000000000E-003
 -8.432700000000000E-003
  0.291408300000000     
 -0.122677600000000     
  0.294528900000000     
   1.06112800000000     
 -0.132563100000000     
   1.00288900000000     
   1.08320700000000     
  0.315811900000000     
  0.309760200000000     
   1.08141500000000     
  0.591046700000000     
  0.590703200000000     
  0.611187200000000     
  0.611114700000000     
  0.573428400000000     
  0.573951700000000     
 -8.242060000000000E-002
  0.324948900000000     
  0.626337300000000     
  0.626532400000000     
   1.00003300000000     
  0.555781400000000     
  0.559298100000000     
 -0.109159900000000     
 -6.918850000000000E-002
  0.339881600000000     
  0.642045000000000     
  0.641741000000000     
  0.544135300000000     
  0.538761200000000     
  0.336427500000000     
   1.08454200000000     
  0.352260700000000     
  0.354888700000000     
  0.526800900000000     
  0.529678200000000     
 -3.203100000000000E-002
  0.657056000000000     
  0.657316600000000     
   1.08363700000000     
  0.512892800000000     
  0.514462000000000     
  0.369692800000000     
  0.368156700000000     
  0.672341500000000     
  0.672513800000000     
  0.979862000000000     
  0.982237100000000     
 -0.137451100000000     
  0.499907900000000     
  0.497409600000000     
   1.08472000000000     
   1.05608900000000     
  0.224907700000000     
  0.384920400000000     
  0.384476200000000     
  0.687517600000000     
  0.687485000000000     
  0.963678600000000     
  0.965630800000000     
  0.482517600000000     
  0.484467500000000     
  0.400133100000000     
  0.400028400000000     
 -0.125972300000000     
  2.132220000000000E-002
  2.170450000000000E-002
  0.466875200000000     
  0.469611100000000     
  0.228019800000000     
  0.415954300000000     
  0.416541900000000     
  0.452968500000000     
  0.451520300000000     
  0.702841000000000     
  0.702941200000000     
  0.431704800000000     
  0.434988900000000     
  0.948621300000000     
  0.950404100000000     
  0.718529400000000     
  0.718724500000000     
  0.933063500000000     
  0.934558800000000     
  0.735551800000000     
  0.735262400000000     
  0.918310100000000     
  0.919700700000000     
  0.207262500000000     
  0.759329100000000     
  0.758997100000000     
  0.903473100000000     
  0.902311600000000     
  0.886521900000000     
  0.887602100000000     
  0.786543500000000     
  0.786158900000000     
  0.863032800000000     
  0.863868400000000     
  0.208942200000000     
  0.124900100000000     
  0.125395300000000     
  0.813588000000000     
  0.814075600000000     
  0.838833000000000     
  0.839504500000000     
   1.07548500000000     
   1.04072000000000     
 -4.396100000000000E-002
   1.08110200000000     
 -0.141607900000000     
 -0.129224500000000     
 -0.130105900000000     
  0.241768700000000     
  0.246641400000000     
  0.101113600000000     