 TITLE="euler solver on unstructured grid" 
 VARIABLES= "X" "Y"  "P" "Rou" "U"  "V" "nuT" 
 ZONE NODES=       11173  ELEMENTS=       18178  ZONETYPE=FEQUADRILATERAL
 DATAPACKING=BLOCK
 VARLOCATION=([3-7]=CELLCENTERED)
 -3.412664258156461E-002
 -2.921402475441741E-002
 -2.959213923038869E-002
 -3.373312515667527E-002
  -7.34389221364711     
  -8.60430832599376     
 -2.805093121454139E-002
   9.47922091039676     
   9.51245101471626     
 -3.916153114574162E-002
   8.80354286081858     
  -9.41511543654455     
 -3.683119635484965E-002
   8.90364043590107     
   8.92143061221825     
   5.71198668303393     
  -9.20359653880194     
  -10.0000000000000     
 -4.447206675843141E-002
  -9.21112375395907     
   9.43673149400153     
 -4.103888431474091E-002
   10.0000000000000     
  -9.61018060754854     
 -4.509610714488761E-002
  -8.90583214940631     
   9.36355424017001     
 -3.849237284462693E-002
   9.51897487795019     
  -8.83861358402957     
 -3.427236760563618E-002
   6.38659930548948     
  -6.34794748557996     
   8.69973350609036     
  -6.30958651961580     
  -7.00918103260693     
 -2.921402475441741E-002
  -5.81464345143122     
   8.86745124147069     
 -3.867040836620534E-002
   6.05238157428623     
  -7.83477836228641     
   7.13617331807434     
   5.82312088239158     
   6.40176329733862     
 -3.416472787705211E-002
   5.57543441493393     
  -7.33956110197297     
 -4.110548927929527E-002
   5.97865449480603     
  -6.29163902336115     
   6.98580733341940     
   6.52184857381068     
   8.92329057810860     
 -3.363900815868031E-002
   9.39148287788566     
  -5.90792758788517     
 -3.847735166720213E-002
   7.77297059886302     
  -8.95035958655900     
 -2.805093121454139E-002
  -5.91968378957633     
  -5.56873464160979     
  -8.97818162909434     
   7.29795097704994     
  -8.19734788812128     
   6.45061537764099     
   9.14814137148310     
  -5.62758060707203     
  -6.78026427202248     
  -6.74819006781584     
  -9.32491109732034     
 -1.245015789167563E-002
 -1.174094380520625E-002
 -7.106254737322475E-003
 -1.785354803887566E-002
  -7.34751745928915     
  -6.68396785059044     
 -1.671251054027730E-002
  -7.83852105083188     
  -6.80316617326880     
 -1.299523028416374E-002
  -8.78808863007142     
  -6.46101661524320     
 -1.844200133311533E-002
  -8.32438680180938     
  -8.93927637462127     
 -2.236296235817582E-002
   9.61018060754854     
  -9.55280798097049     
   8.17532902419988     
   6.69129369402879     
   6.12732429024930     
 -2.622369699043002E-002
   8.60672876873595     
   6.17414831598977     
 -1.330033635653242E-002
  -9.44777019476085     
  -8.38303518742088     
 -8.802291584718215E-003
  -7.89206622837333     
   8.50291289018021     
 -6.718043581496372E-003
  -8.43686742833882     
   8.35597430272589     
 -2.128164450757968E-003
   9.58390070937257     
   8.84117895807712     
   9.17443846243881     
   7.92550248378431     
   6.83825582164539     
   5.26794195468235     
  -9.58627548294967     
  -7.40135730496964     
  -5.79519128020442     
  -7.90643174023447     
  -7.33165065797134     
 -1.603025820176814E-002
  -7.94586590312231     
   7.66108364529123     
 -1.245015789167563E-002
 -7.106254737322475E-003
 -1.174094380520625E-002
 -1.785354803887566E-002
  -7.53309561062954     
  -8.63196442168043     
 -1.671251054027730E-002
  -7.15757987964018     
   8.20902680951201     
 -1.299523028416374E-002
  -7.04014532614717     
   8.11705025967132     
 -1.844200133311532E-002
   8.35735366480135     
   7.63161664167787     
 -1.435838867979079E-002
  -7.29498248552135     
   5.93456808234389     
 -2.395323147084489E-002
   7.53286338320934     
   7.77856373360954     
  -8.75723364611377     
   5.66820957697700     
  -8.02933523539918     
 -2.559448452362261E-002
   7.65955540684505     
   5.28289257978014     
 -8.802291584718215E-003
  -8.12322723901511     
   7.94524722605794     
   6.39138926030182     
  -7.78542543838172     
   9.52378092281128     
 -2.128164450757968E-003
   8.07684715682784     
   8.93369809653000     
 -6.718043581496372E-003
   8.29662095297459     
   7.55043247451541     
   7.20112836519511     
   5.55524653336643     
   7.05423103164238     
  -8.97510957707349     
  -6.91031279125805     
  -6.85667013678731     
 -1.603025820176814E-002
  -9.43801587252908     
  -5.44659327703964     
 -2.275878312524917E-002
   7.12050176464706     
 -1.992127880775677E-002
  -7.62713816979187     
  -6.10777209548918     
  -5.70205579752670     
 -2.331443420034144E-002
  -5.18882516651451     
  -8.60868797466768     
 -2.256165973094983E-002
 -1.992127880775677E-002
   7.60254747123489     
  -8.49068328985994     
  -7.53414063176681     
   8.23537335078062     
 -2.331443420034144E-002
   5.62528607900294     
   8.73453053061326     
 -3.361277021811983E-002
 -2.606826372578774E-002
  -8.00058237989082     
   9.53651817603209     
   8.54756797627185     
   5.32636477379834     
 -3.127049621813762E-002
  -6.24921327811156     
   6.03830634627946     
  -10.0000000000000     
  -6.24369401176587     
   5.39621905132347     
   7.48445462809648     
   7.02204917193613     
  -7.07923438126588     
  -8.30927433594678     
   7.20398164661335     
 -2.606826372578774E-002
 -3.035317723973684E-002
  -5.37204007364470     
  -6.45269101329837     
 -3.299109652329586E-002
   6.41679847207543     
  -9.13414998472285     
  -8.35335476690650     
  -9.70519569719641     
   6.90004620628019     
  -8.31061915847184     
  -5.29010267675859     
  -9.50617109002408     
 -2.652959717932716E-002
  -9.56817829354422     
  -7.03960116017728     
 -3.317377098322000E-002
  -9.20124019352867     
  -1.47693050950973     
   6.72076236824296     
   6.45750053196744     
   5.28996666697815     
   6.70896197047641     
   4.78199816698415     
 -0.907537801340563     
   5.38763716855200     
  -1.31498044713976     
  -6.48711764831995     
  -7.86474204440236     
  -6.58358140040891     
   10.0000000000000     
 -1.540877469999597E-003
  3.253202691043839E-003
   6.62370734592418     
   7.91039883058986     
   9.50367194321513     
   6.13216567276693     
  2.862222552163942E-003
  -10.0000000000000     
   7.49503151492420     
 -3.301402586038862E-003
  -7.45540073639467     
  -9.34478720155426     
  2.519456017187908E-003
  -5.39544694684169     
  -7.67199919364652     
  7.211174859555870E-003
  -7.36690427221615     
   5.76920422321723     
  1.078194286403074E-002
   8.42836835283998     
  -10.0000000000000     
  1.571784510314742E-002
   8.57343435041560     
   7.05655220878764     
 -4.032091215434615E-003
   5.15238847435799     
   8.30511087899291     
  9.154286290866290E-003
  -8.32105314541475     
   9.22134994252892     
  -10.0000000000000     
   7.63023887744326     
   5.98273135509644     
   8.59035276710780     
   5.30482541992874     
   7.03839828481771     
  -9.26535423794804     
  -10.0000000000000     
  -8.80397298321408     
  -6.67727435182980     
  -9.17256515995160     
  -5.82557774831539     
 -1.540877469999597E-003
   5.44659327703964     
  3.253202691043839E-003
  -6.25479245938715     
   1.82579524900449     
   1.03242414850473     
  2.862222552163942E-003
  0.671305784857809     
   10.0000000000000     
 -3.301402586038862E-003
  0.674398069213724     
   1.50202190501523     
  2.519456017187908E-003
  -3.36253282493054     
   5.03957830512113     
  7.211174859555870E-003
   9.61128642877734     
  -5.05677388458818     
  1.078194286403074E-002
   9.24232442238780     
   9.26035971679600     
  2.843938044110200E-004
  -9.71001679007829     
   1.46470427061429     
  1.571784510314742E-002
   1.90983321980378     
  -9.67693399878156     
  9.154286290866290E-003
  -9.69312575329610     
  -4.70714619105273     
  -3.24434624194583     
  -3.87386726311385     
  -9.53429188472912     
  -8.03364972342809     
   3.97140828869505     
  -3.53910293137914     
  -6.78872392892674     
  -5.23690472151500     
   9.47087879339878     
  -1.92954987574872     
  -9.72236924348045     
  -5.03783682251708     
 -2.816466802348126E-002
   6.84328526017108     
   6.88144486038831     
 -3.562186253057457E-002
  -9.29322269116960     
   5.16379802341041     
 -3.062483671666726E-002
   9.25645038913073     
   2.02907361692038     
  -6.56466434270701     
  0.858253534401468     
  -4.91879861912248     
   5.51495613594273     
  -9.22926496214016     
  -9.69364594124712     
   4.94638547315812     
   8.17788431006394     
   6.09794290274630     
  -9.71182652508923     
   8.13862945321000     
  -8.99541018608735     
 -2.510017743837922E-002
   6.61530472444456     
   8.06229785499235     
  -9.56229854485777     
   1.06678845498641     
  -8.44072243019416     
  -10.0000000000000     
  0.304587032100516     
   1.34979679928506     
 -3.192887861837278E-002
  -10.0000000000000     
 -0.995077967476877     
 -2.338220869057920E-002
   3.90400506409614     
  -3.74848257440112     
  -5.57041518161500     
   5.34635817559338     
  -3.44917095743056     
   10.0000000000000     
  -3.81304195413804     
   7.64654531363942     
  0.193853130123103     
  -10.0000000000000     
  -3.83858830132975     
  1.710244191604599E-002
  2.312115847107602E-002
   2.84014850456919     
  2.324605832963306E-002
  -9.37096898379090     
   7.00587084684549     
  1.731313252980889E-002
   10.0000000000000     
   7.56552690845966     
  2.196318263957089E-002
 -0.243732915838849     
  -9.63728411675357     
  2.896883177626344E-002
   7.78550963174841     
  -7.78550963174841     
  3.159182212499385E-002
   7.39569023929695     
   9.65377759627151     
  2.969349638339994E-002
  -6.49162546793685     
  -5.56318196218672     
  4.135790269837254E-002
  -6.88144486038831     
   10.0000000000000     
  2.008296131264834E-002
   10.0000000000000     
   9.65783260454103     
  1.522673041228092E-002
   1.55601860720364     
  -7.66108364529123     
   5.74319586641011     
  -10.0000000000000     
  -8.05090303774270     
   6.49162546793685     
 -0.584294752671651     
  -10.0000000000000     
   5.37172355202996     
  -1.27959249299296     
  -3.37126342957118     
  -7.27126425283977     
 -0.942647634399222     
  -5.56966115198307     
   5.46211940518632     
   1.51680365619981     
  -5.18958987967408     
  -1.99945500882638     
   5.36913413445848     
   6.39292201049919     
  9.132897614677241E-003
  -6.19696266343226     
   3.29538694609716     
  1.710244191604599E-002
  -9.76263276081067     
  2.312115847107602E-002
  2.324605832963306E-002
   4.50555456421692     
   9.31463295904286     
  1.731313252980889E-002
   4.42029321488498     
   6.98961710881818     
   3.50330908084100     
  -10.0000000000000     
  -8.56514841665134     
  2.196318263957089E-002
  -8.17532902419988     
  -5.67936447725261     
  2.896883177626344E-002
  -5.36888321376427     
  -7.39569023929695     
  3.159182212499385E-002
  -4.14284667069062     
  -10.0000000000000     
  2.969349638339994E-002
   6.38450634649296     
   9.64306385920910     
  4.135790269837254E-002
  -8.35494813787077     
   9.32095686680568     
  2.008296131264834E-002
   6.28919504567552     
  -8.68932449872179     
  1.522673041228092E-002
   5.09423118039676     
   5.96577502439381     
   3.73637875643687     
  -8.83054182264562     
   9.25873824194378     
   8.97548583394393     
   9.44887214700927     
   9.33025716041982     
  -8.95496780910280     
   9.64603891466960     
   8.56514841665134     
   4.03473663358885     
  -9.42501350066713     
  -10.0000000000000     
   1.54326558773767     
   9.73648803492542     
  -9.57918933643930     
  9.132897614677241E-003
   9.74807190166227     
   9.16857240356796     
   7.27126425283977     
  -7.92545386578351     
   5.06217806558303     
  -9.26583900571074     
  -5.98662166972990     
   5.77935854834919     
 -4.969683517138020E-002
   5.31470816114604     
   1.14204030728649     
 -3.188597435610378E-002
  -5.83641266949111     
   5.83641266949111     
   6.22623206194257     
   7.34807796838322     
   5.90672597117148     
   9.68654940282398     
   10.0000000000000     
  -3.28837532331126     
 -0.880378572819523     
   3.51835757556667     
  0.492969314255367     
  -5.41723919172951     
   3.86557391772055     
  -3.39313187692538     
  -4.99504731657213     
 -0.582198072579427     
   2.88763179264916     
 -5.197039078188240E-002
   5.56156052808804     
  -8.94972521386262     
  -4.12156901491913     
  -1.62106534802685     
  -6.33499412269276     
  2.907398010077654E-002
   9.40749960851877     
  -8.66765404569524     
  2.907398010077654E-002
   5.12940668091520     
  -7.00587084684549     
 -4.152908045277602E-002
   5.21334693136804     
  0.594570933312597     
  2.008361165760880E-002
  -2.78075932242691     
   9.10974352203282     
  2.008361165760881E-002
  -6.61605145439403     
  -9.22036121509708     
   2.80234146285531     
   3.48778838109176     
  -5.36707597131295     
   5.49232715465546     
   3.67757289369435     
  -10.0000000000000     
   9.62146913536367     
  -3.68367592592424     
  -5.87787375573523     
  -2.97324270496977     
   2.12474371737452     
  -5.16504268688096     
 -0.394958583472584     
  -8.58045580765613     
  -9.55473715533022     
 -4.835597275598067E-002
   8.69369218312692     
  -7.52484252926871     
  -5.33617458087411     
   7.12442704775232     
   8.35683529240651     
 -3.774820232124548E-002
  -5.53367061756385     
  -4.19159717718673     
   2.85566695049889     
  -4.03140055143426     
   5.10698982672683     
 -5.298624089123552E-002
 -0.540838002802055     
   3.03988381667136     
   5.05149718425986     
  9.911789675828218E-002
  -7.11433995241521     
   3.15267048872907     
  -6.84846036620068     
  -4.95986658815905     
  4.248118163618298E-002
  -4.72217869910890     
 -0.969526699209809     
  4.248118163618297E-002
  -10.0000000000000     
  0.298838384900776     
  -5.23884383216521     
   5.25855839400164     
   4.37923894682788     
 -4.578580118947987E-002
   2.59892874202497     
  -10.0000000000000     
 -6.062264630586565E-002
  -6.77238777215828     
   3.98445783844632     
  0.325905182648877     
  -5.19370841740869     
   5.50002839114104     
 -2.251983642246001E-002
   3.65728358057350     
  -3.10749473780050     
   2.05880710874144     
  -3.41831783608065     
   10.0000000000000     
   2.95974956307255     
   2.38199724637713     
  -5.52023195453989     
   4.73404125076217     
  -5.71198668303393     
   4.91244816488008     
 -6.728377602201557E-002
   4.56283096268124     
   3.23915347880830     
  4.583718354163125E-002
   1.23555826077006     
  0.529522713848847     
  4.583718354163125E-002
  -9.50493138116478     
   1.72919255729655     
   1.53884650575957     
   1.34044114371837     
   3.24468005178444     
   9.30974168431021     
   6.61605145439403     
  0.914253056066540     
   4.49740821843140     
  -3.20839646434379     
   5.03243260254247     
  5.266390553811041E-002
   1.50183450921491     
   1.94454427400794     
  5.266390553811041E-002
  -10.0000000000000     
   1.55599628161306     
 -6.388847088195924E-002
  -10.0000000000000     
  -7.14389935873040     
 -5.897039839231472E-002
   2.84803162169180     
  -7.46144794641291     
 -4.891457488370221E-002
  -8.47775457331012     
  -3.45478395384213     
   8.83054182264562     
   7.29197425842370     
  -2.34975173212220     
 -6.929477550166716E-002
   4.91906536116441     
  -7.76529756793028     
  -8.69704258930084     
  -7.45460285813657     
   3.41627907478360     
 -8.124320501151575E-002
  -7.09230951349409     
  -10.0000000000000     
  -8.75114826857160     
  -8.67017565620452     
  -7.16140503338576     
   4.89290223326991     
   2.84518707990319     
  -9.37577663672604     
 -5.409903586856110E-002
  -9.32488808869127     
   3.51156980009656     
  -7.06084331328490     
  -10.0000000000000     
  -8.10274617500730     
  5.407918133462684E-002
  6.563947602388481E-002
  -9.58459438970239     
  -8.75077645549234     
  -8.14266141304942     
   10.0000000000000     
  6.588204399509738E-002
  -8.38754188232672     
  -8.27917471141968     
  8.022759270343634E-002
  -8.64207118451577     
  -9.00019940329403     
  -8.75342403261645     
  -6.28940722444711     
  -9.07363202380696     
  5.407918133462684E-002
  -4.94932921362194     
  6.563947602388481E-002
  -9.05817250715609     
  -8.77764338858811     
  -8.95381093250896     
  6.588204399509738E-002
  -8.64328694329222     
  -8.43786887241460     
  8.022759270343634E-002
  -8.72160042833856     
  -8.07587924186758     
  -5.05932311663587     
  -8.61626684646465     
  -9.12444687695173     
 -3.788119290754208E-002
  -6.01513993394491     
 -0.922704925102450     
 -2.906595602331661E-002
 -0.504156160892224     
  -1.99187128249432     
  -1.22047918813978     
  -8.94430612295444     
 -0.591557954447196     
 -5.291985194743361E-002
  -4.32053595427378     
  -9.30982031130599     
 -4.290192118966772E-002
  -5.58079173237404     
  -8.37421409931602     
 -4.258044521242345E-002
  -8.49889473042740     
  -4.72791336719891     
  -5.46505259174055     
   5.13688559860184     
  -9.33614107791518     
   1.26423585753705     
   5.84704370832027     
  -8.38646091560634     
  -10.0000000000000     
  -8.72390952239662     
  -4.76481394034297     
   10.0000000000000     
  -9.54160331906595     
  -8.89515971058447     
  -4.37404627830626     
  -8.54721566361647     
 -0.633683662976593     
 -7.708937154362713E-003
   5.10324937499116     
  -3.03771725902027     
  -9.28119692976036     
   8.44072243019416     
  -9.01606934758111     
  -9.29498762036063     
  -3.76573166696047     
  -3.22958277066854     
 -1.056098696822953E-002
  -8.58911536572171     
   9.42214963022663     
  -7.62392522120991     
   1.48854488556844     
   9.63963887436140     
  3.019900680916441E-002
   5.66420047077860     
  -8.46707112576694     
  8.123648445554468E-002
  -7.74271416778287     
  -9.27206562971032     
  9.625365559973942E-002
  -9.20118571959059     
   1.71408167991267     
  7.444607939458774E-002
  -7.49957561005586     
  -8.86477688071712     
  8.123648445554468E-002
  -3.55431671800070     
  -4.68456312172131     
  9.625365559973942E-002
  -3.19880229286405     
  -5.05891415989638     
  7.444607939458774E-002
  -8.70710875878486     
  0.240552494157231     
  -9.32471894599712     
  -7.36845060435654     
  -10.0000000000000     
  -8.27950833932037     
  -8.41332784870200     
  -9.34212448683489     
 -5.289483481818420E-002
  -7.16950668439713     
  -3.97349391562243     
  -9.73253355929365     
  -8.35571827728021     
  -3.93116717367297     
  -8.24435682062475     
  -7.01613481604674     
  -8.61024757852807     
  -4.64766254857462     
  -8.44019478179770     
  -8.52023182843633     
  -4.29073557167325     
  -3.32211916892044     
  -4.93270320886624     
  0.105114788686439     
  -4.80171451377709     
  0.113393966825223     
  0.115891000559807     
  -8.33276295404807     
  -8.43524751163929     
  0.105555992509845     
  -8.10118897545602     
  -8.25153218739708     
  0.116716738685711     
  -7.74525081542938     
  -8.97612972881778     
  0.106964662302857     
  -7.76727057032079     
  0.639085544637685     
  0.126320597500864     
  0.890299296105953     
  -8.64899682574183     
  0.131357551960627     
   3.21623763514089     
  -6.03488909930174     
  0.130082793738524     
  -5.04008548857295     
   2.26418228260627     
  9.155818480295184E-002
  -8.35959398251036     
  -8.08054996647639     
  9.186529416378267E-002
  -3.84228430044872     
   10.0000000000000     
  -8.72912851367977     
  -7.98982127708018     
  -8.45287597729989     
  -3.05154845216283     
  -8.32389466805149     
   4.63715748815744     
   9.30378295217537     
   3.52446658721075     
   4.28509886923112     
  -8.30580054176200     
   9.49395397940359     
  -3.71873876972103     
  7.988128953332989E-002
  -8.68977681730305     
  -4.42308985967048     
  0.137446230357201     
   2.63902322643765     
  -4.18006575858711     
  0.149871398929658     
   4.98735641188755     
   1.73840330595127     
   3.77246043606861     
  -9.09565177870189     
  -6.00719617146338     
  0.147036836881663     
  -7.38793190905895     
  -8.02069115882352     
  0.158339306325753     
  -6.80643788985239     
   2.46376356745438     
  0.154530857599747     
  -8.27870674552390     
  -8.04901230877259     
   2.08892262360846     
  -7.95801251827318     
  -4.45999043281360     
  0.168171673417885     
 -0.133035452469263     
  -8.02217774915350     
  0.168816380129839     
   3.98053061293301     
  -8.05853021158149     
  0.169985664630929     
  -8.12458947625711     
   4.27171874815434     
  -3.45339034437858     
 -0.332478858308745     
   4.14734105062041     
  0.175178898393752     
  -7.84413721248379     
  -7.99527302132308     
  0.188054786663845     
   4.63067779286276     
   4.24860643982862     
  0.178779843882996     
  -4.92749148544439     
   3.59388398068887     
  -2.76407958734523     
  -2.11795282836712     
  -4.07567244310778     
  -2.92709143454245     
   3.28135667119643     
   3.96876459596371     
   1.91366296472389     
  -7.70465796879639     
  -8.21254182279135     
  0.194716295399296     
  -2.72124845991867     
  -4.07269286476560     
  0.105114788686439     
  0.113393966825223     
  -8.67252761374196     
  0.115891000559807     
 -0.952315418860554     
  -10.0000000000000     
  0.105555992509845     
  -1.92897293055074     
  -1.66728292466972     
  0.116716738685711     
  -1.98592288857653     
   1.71978457700545     
  0.106964662302857     
 -0.995960703922361     
  -4.11508003380681     
  0.126320597500864     
  -2.63103113470432     
 -0.695688491221860     
  0.131357551960627     
  -2.30828965457290     
 -0.346576383648978     
  0.130082793738524     
  -1.29624944067519     
 -0.651099208203129     
  9.155818480295184E-002
  -3.04778043726332     
  -1.55474621687970     
  9.186529416378267E-002
  -3.63862397655370     
  -1.68564134071047     
   1.92356706945942     
  -1.73033866100326     
  -1.34080905820800     
  -1.04053557658218     
   1.88934133887193     
  -2.07484861747467     
  -9.23849525061693     
  -1.42992854237031     
  -1.64109973144754     
 -0.342046710107732     
  -2.67689899114256     
  -2.61683020029686     
  7.988128953332989E-002
  -3.86668975890685     
  -2.03064348706403     
  0.137446230357201     
  -1.85675029895791     
 -0.872827039390697     
  0.149871398929658     
   4.96506390550106     
  -7.87845603545698     
  -2.33074561298559     
  -1.19007807388736     
  -1.38537420889998     
  0.147036836881663     
  -7.99800768806467     
  -1.22251332991751     
  0.158339306325753     
  -7.68357558125624     
  -8.06936536238991     
  0.154530857599747     
  -7.63071494705663     
  -7.45399117416463     
  -8.70610819325274     
  -4.14948206996253     
  -7.61207544103724     
  0.168171673417885     
  -7.94112356724226     
  -7.73529670415888     
  0.168816380129839     
  -7.96829812529249     
 -6.006776652867428E-003
  0.169985664630929     
  -2.41970064089734     
   4.72361757783485     
  -4.84407134756910     
  -6.44487630752806     
  -7.68477787363532     
  0.175178898393752     
   4.66661722082250     
 -0.350847650443699     
  0.188054786663845     
  -5.03005967454732     
  -7.72323106053031     
  0.178779843882996     
  -7.67762002520448     
  -1.81616006489358     
  -4.87551565737683     
  -7.80816041634475     
   2.61380887829960     
  -8.85938268152579     
  -7.22693921057355     
  -8.39382936263145     
  -7.41719012459995     
 -0.157072057796987     
 -0.823421411705939     
  0.194716295399296     
  -7.66033272745582     
   2.25920266311408     
  0.978206563141244     
  0.980393855570706     
  0.962499812689405     
  0.956205343838823     
   3.79253062799308     
 -0.531925195134156     
   1.00355694066988     
  -7.11713017215338     
  -7.37415388168267     
  0.978206563141244     
  0.962499812689405     
  0.980393855570706     
  0.956205343838823     
   4.10775914062722     
  -6.75286988537527     
   1.00355694066988     
  -7.09034256849003     
   4.00484984162108     
  -7.57731241938454     
  -1.03885599897122     
   4.93996627095112     
  -8.33603147829531     
  -5.11388663523408     
  -4.23338261597876     
   4.98955466498862     
  0.943643651253591     
   3.88139746074334     
  -7.78929032521086     
  -7.51254522306030     
  0.943643651253591     
   1.02507476474043     
 -0.672184006671928     
 -0.546879798400628     
  -6.39303914442170     
  -3.62095365755263     
  -8.04086533332163     
  -2.37609664408798     
  -6.82782905237564     
  0.207503544245418     
  -7.73843063486562     
  0.207503544245418     
   2.11324425269099     
   4.87208671498586     
  -8.19061963402520     
  0.809799814653016     
  -7.36940537456059     
  -1.68294089788645     
  -4.65558135862338     
 -3.001526725109064E-002
  -9.73410732819583     
  -9.51555896439278     
 -8.870982366297356E-002
  -9.06442766472809     
  -7.42784896085929     
  -3.02174189711333     
  -9.68055906632657     
  -9.37137268574706     
 -6.969407258822680E-002
  -9.15795054577676     
  -6.27096567088210     
  -1.06468215127813     
  -1.51593076483139     
   4.04878603121986     
   4.69849832893234     
  0.657112159752234     
 -7.832942500383658E-002
  0.148283521371695     
   2.66334485199693     
   2.98348418309277     
  0.145388593693660     
  -7.57725460882808     
  -3.06646590453362     
  0.217507129989528     
  -8.80112966089891     
  0.227169635565425     
  0.217507129989528     
  0.227169635565425     
   9.48117242058897     
 -3.546573196085920E-002
   3.94194132695471     
  -9.30285871680656     
  0.236485668717539     
   6.70223732731547     
  0.246967388080428     
  0.236485668717539     
  0.246967388080428     
   4.38847284437576     
  -4.80316894578629     
  -8.41584911752397     
   6.10180607548539     
  -2.97669214085361     
  -9.09792720045383     
  -6.77967590243029     
  0.256554612202045     
  -5.48158011676112     
  0.266887656758744     
  0.256554612202045     
  0.266887656758744     
  -7.34646000349324     
  0.936370667040405     
  0.923819220979724     
  -3.80469608880640     
  0.936370667040405     
 -0.559097006972027     
  0.923819220979724     
  0.971464071094633     
   4.22741832458904     
  -1.59549337336416     
  0.971464071094633     
  -7.34726198153486     
  -7.60674625260388     
  0.276717678218952     
  -7.29313165901111     
  0.286909291870250     
  0.276717678218952     
  0.286909291870250     
  -5.98402009211569     
  0.296963771830035     
  -4.30274972747108     
  0.307032007639457     
  0.296963771830035     
  0.307032007639457     
   4.80629098004480     
  0.317277687018773     
   2.48808519509952     
  0.327213092571010     
  0.317277687018773     
  0.327213092571010     
  -7.40098202809252     
  -4.49689100621419     
  -8.57842397369917     
  -7.32196010691801     
  -1.21117416581106     
   10.0000000000000     
   5.06306973245716     
  0.108550215987435     
  -1.15713276901795     
  -2.20024084484932     
  0.109174754517389     
  -4.83861508623687     
  0.263702073242274     
  0.337647932556025     
  -7.41095529701969     
  0.347473866221216     
  0.337647932556025     
  0.347473866221216     
  -7.00351499444823     
  -2.15917037202943     
  -7.27457491029132     
   10.0000000000000     
  -6.36893342009198     
   4.54229185629589     
   3.30560367829937     
  0.190296660731464     
  -7.65782828866533     
   2.83953083053981     
  0.182606665095994     
  -3.75946940158111     
  -6.72604548715625     
  0.358069566244453     
  -4.57069212953183     
  0.367780945363030     
  0.358069566244453     
  0.367780945363030     
  -4.53379157843202     
  0.378538982145837     
  -6.41541565989170     
  0.388147402521331     
  0.378538982145837     
  0.388147402521331     
  -6.35410345783233     
  0.399047754640199     
  -6.38023628610010     
  0.408558540432426     
  0.399047754640199     
  0.408558540432426     
  -5.93408416643899     
   3.36456098720227     
  -3.49193802611797     
  -7.93219842940613     
  0.949857975597668     
   3.63527621337737     
  -7.71156370197981     
  -9.65312535555274     
  -4.60759258019214     
  -3.18955098443229     
  0.931200443694032     
   3.60154042322804     
  -2.88716417905112     
  0.951010553141273     
  -3.23198294503051     
  -2.84613640247126     
  0.916994221065680     
  -7.07465251324605     
  -3.57764314403978     
   4.35940983959906     
  -7.25803011506452     
 -0.917576264701525     
  0.949857975597668     
   4.01358968308820     
   3.76494833955793     
  -4.22896793494400     
  -3.67103218421228     
  -6.77363016212677     
  0.931200443694032     
  -6.96401773387597     
   4.13153676305387     
  0.951010553141273     
  -6.67222858641085     
  -6.97171825827168     
  0.916994221065680     
  -7.31173787602365     
   3.84853374668244     
  -6.60751061877094     
   4.95304836897063     
  0.903522705029341     
   3.14911688198462     
  0.903522705029341     
   3.29487531483337     
  0.419593707036764     
  0.429002321007309     
  -1.93893365531147     
  0.419593707036764     
  -3.53618051229825     
  0.429002321007309     
  0.440165786516876     
  0.449488627810991     
   3.39753671171815     
  0.440165786516876     
  -6.59187877407632     
  0.449488627810991     
  0.460768877297499     
  -4.03398071650450     
  0.470012576782653     
  0.460768877297499     
  0.470012576782653     
  -5.74600719698300     