 TITLE="euler solver on unstructured grid" 
 VARIABLES= "X" "Y"  "P" "Rou" "U"  "V" "muT" "K" "omg"
 ZONE NODES=        5306  ELEMENTS=       10382  ZONETYPE=FETRIANGLE
 DATAPACKING=BLOCK
 VARLOCATION=([3-9]=CELLCENTERED)
 -0.272758538103994     
 -0.265409606214464     
 -0.257667088465144     
 -0.249858931022755     
 -0.242016250718091     
 -0.234151157885300     
 -0.226269875890541     
 -0.218376105113693     
 -0.207835312106639     
 -0.197281347442159     
 -0.186714777925270     
 -0.176138368761887     
 -0.165554506709981     
 -0.154962202733030     
 -0.144363254892205     
 -0.133759377149139     
 -0.123149075870052     
 -0.112533812717946     
 -0.101915007306052     
 -9.129095575173440E-002
 -8.066295151891084E-002
 -7.003228807149749E-002
 -5.939713537754525E-002
 -4.457917879750471E-002
 -2.975537729924723E-002
 -1.492619343025756E-002
 -9.100652296062861E-005
  1.474789084320977E-002
  2.959111933582871E-002
  4.443846870603947E-002
  5.928968665521398E-002
  7.414452088472417E-002
  8.900280319548461E-002
  0.103865280404385     
  0.118729828131075     
  0.133597277291989     
  0.148467459688040     
  0.163340291219686     
  0.178215561638070     
  0.193093186843649     
  0.207974039802627     
  0.222856080234198     
  0.237740139054793     
  0.252626132164869     
  0.267514017514657     
  0.282403711004612     
  0.297295086485421     
  0.312189143072601     
  0.327083798435575     
  0.341979967590318     
  0.356877650536829     
  0.371776763175565     
  0.386677263456756     
  0.401579151380402     
  0.416483384012247     
  0.431387921071487     
  0.446293761673639     
  0.461200863768931     
  0.476109185307592     
  0.491018768339394     
  0.505929612864336     
  0.520842675948164     
  0.535755959359844     
  0.550670504264664     
  0.565586268612853     
  0.580503336503954     
  0.595421623838424     
  0.610341256765577     
  0.625263192351159     
  0.640185432364135     
  0.655109102069337     
  0.670034159416994     
  0.684960646456876     
  0.699888647288527     
  0.714818161911946     
  0.726356979106015     
  0.715058013807698     
  0.700299809952739     
  0.685540092306011     
  0.670778860867515     
  0.656016199736794     
  0.641252150963618     
  0.626486672498216     
  0.611718891374385     
  0.596950805823160     
  0.582181374679252     
  0.567410724091974     
  0.552638769961785     
  0.537865596388227     
  0.523091161321529     
  0.508314507695945     
  0.493537633742508     
  0.478759498295931     
  0.463980101356214     
  0.449199484973128     
  0.434417607096902     
  0.419634425677764     
  0.404848941600197     
  0.390063111045464     
  0.375275892848277     
  0.360487287008635     
  0.345697251476768     
  0.330905702153132     
  0.316112639037728     
  0.301316978915495     
  0.286520635917926     
  0.271722610929503     
  0.256922777800912     
  0.242121052432611     
  0.227317392774828     
  0.212511714728020     
  0.197702850977585     
  0.182892757704786     
  0.168080309644792     
  0.153265422698059     
  0.138447886615732     
  0.123627617298268     
  0.108804446546580     
  9.397720704606764E-002
  7.914777087844996E-002
  6.431488662958192E-002
  4.947838610037819E-002
  3.463801699221072E-002
  1.979352700645142E-002
  4.944705894243581E-003
 -9.909823907872095E-003
 -2.476835851726065E-002
 -3.963227549738136E-002
 -5.450203739571906E-002
 -6.518201514592518E-002
 -7.586448391163569E-002
 -8.655161012297050E-002
 -9.724268901281172E-002
 -0.107937015814042     
 -0.118636883106094     
 -0.129341712271165     
 -0.140050966741222     
 -0.150767149344557     
 -0.161489975811763     
 -0.172219245972981     
 -0.182957967253756     
 -0.193706528181026     
 -0.204465695729670     
 -0.215240033166775     
 -0.223332110665287     
 -0.231436676945888     
 -0.239557432388457     
 -0.247700600359153     
 -0.255878291192124     
 -0.264121621718164     
  -10.6844114236551     
  -9.68529590644511     
  -8.68618038923510     
  -7.68706487202509     
  -6.68794935481508     
  -5.68883383760507     
  -4.68971832039507     
  -3.69060280318506     
  -2.69148728597505     
  -1.69237176876504     
 -0.693256251555029     
  0.305859265654981     
   1.30497478286499     
   2.30409030007500     
   3.30320581728501     
   4.30232133449502     
   5.30143685170503     
   6.30055236891504     
   7.29966788612505     
   8.29878340333506     
   9.29789892054506     
   9.33994869189017     
   9.38199846323527     
   9.42404823458037     
   9.46609800592548     
   9.50814777727058     
   9.55019754861569     
   9.59224731996079     
   9.63429709130589     
   9.67634686265099     
   9.71839663399610     
   9.76044640534120     
   9.80249617668631     
   9.84454594803141     
   9.88659571937651     
   9.92864549072162     
   9.97069526206672     
   10.0127450334118     
   10.0547948047569     
   10.0968445761020     
   10.1388943474471     
   9.13977883023713     
   8.14066331302712     
   7.14154779581711     
   6.14243227860710     
   5.14331676139709     
   4.14420124418708     
   3.14508572697707     
   2.14597020976706     
   1.14685469255705     
  0.147739175347040     
 -0.851376341862969     
  -1.85049185907298     
  -2.84960737628299     
  -3.84872289349300     
  -4.84783841070301     
  -5.84695392791302     
  -6.84606944512303     
  -7.84518496233303     
  -8.84430047954304     
  -9.84341599675305     
  -9.88546576809816     
  -9.92751553944326     
  -9.96956531078836     
  -10.0116150821335     
  -10.0536648534786     
  -10.0957146248237     
  -10.1377643961688     
  -10.1798141675139     
  -10.2218639388590     
  -10.2639137102041     
  -10.3059634815492     
  -10.3480132528943     
  -10.3900630242394     
  -10.4321127955845     
  -10.4741625669296     
  -10.5162123382747     
  -10.5582621096198     
  -10.6003118809649     
  -10.6423616523100     
 -0.223221902727607     
 -0.219678279002016     
 -0.214178647814418     
 -0.210385257141134     
 -0.228465898565209     
 -0.231759040411373     
 -0.220117591250785     
 -0.215948527326876     
 -0.200277799953181     
 -0.204321064725888     
 -0.237534844327451     
 -0.240544819083176     
 -0.228582929550641     
 -0.224680377050239     
 -0.211156331068770     
 -0.206685876582790     
 -0.249624091604676     
 -0.246915736682604     
 -0.189844662947893     
 -0.194113053590041     
 -0.237732200809966     
 -0.234113220795826     
 -0.275403307732875     
 -0.275398325991242     
 -0.256263723708916     
 -0.258743278273499     
 -0.218160084234845     
 -0.213350963450222     
 -0.201322478074114     
 -0.196566612415434     
 -0.225319294464915     
 -0.220880142162671     
 -0.282401290555929     
 -0.282244844055407     
 -0.179393131802839     
 -0.183856501067185     
 -0.267493574236810     
 -0.265297365229073     
 -0.283252277166799     
 -0.282414935871704     
 -0.244696565493714     
 -0.247930848340133     
 -0.289309426090072     
 -0.208757905056492     
 -0.203560810056528     
 -0.274435609289268     
 -0.274115406381390     
 -0.169071303473972     
 -0.173717114557512     
 -0.291345225582513     
 -0.191148736491879     
 -0.186158022136480     
 -0.233254078100947     
 -0.228961741371895     
 -0.291091365477149     
 -0.226382096218195     
 -0.221424942538821     
 -0.158709306907845     
 -0.163544189986870     
 -0.255712525513408     
 -0.258591733934563     
 -0.291725740381539     
 -0.217109918651805     
 -0.211568098337274     
 -0.292345224944449     
 -0.198367205752268     
 -0.192853816895877     
 -0.148035003130809     
 -0.153054383331201     
 -0.181280599516501     
 -0.176104447643526     
 -0.283469125711408     
 -0.266041416587240     
 -0.269162461492652     
 -0.244220144477115     
 -0.240300234858083     
 -0.299347209190335     
 -0.279796812556294     
 -0.137055182281667     
 -0.142234622638877     
 -0.301349352746676     
 -0.301261240573646     
 -0.274995172836600     
 -0.206323522527136     
 -0.200310782744872     
 -0.171908838965089     
 -0.166513275395961     
 -0.131258598458112     
 -0.125947834064305     
 -0.227148481960450     
 -0.221418752407722     
 -0.187895018057286     
 -0.182175075915447     
 -0.292188540403167     
 -0.237153782103900     
 -0.232323986106058     
 -0.114864271169536     
 -0.120280132182029     
 -0.256762769366049     
 -0.253554134768398     
 -0.156386592597162     
 -0.162054821611547     
 -0.303034623233703     
 -0.292492913575318     
 -0.302385954768355     
 -0.103890787146817     
 -0.109398595359108     
 -0.215745146356897     
 -0.209304253179930     
 -0.188333704359015     
 -0.194664009405831     
 -0.145254370453756     
 -0.151162036522940     
 -0.301876679506459     
 -0.179112969498811     
 -0.173314298612493     
 -9.296638419996361E-002
 -9.856293127924931E-002
 -0.283467781160653     
 -0.311422296947250     
 -0.269211159610238     
 -0.266741615982029     
 -0.309422008092975     
 -0.311264424637863     
 -0.305380121536315     
 -0.133721891158760     
 -0.139813790367397     
 -0.281015123550138     
 -8.227488030455221E-002
 -8.793901761077863E-002
 -0.312511100139618     
 -0.313909820151676     
 -0.165501953446911     
 -0.171710663813160     
 -7.181638402958608E-002
 -7.759685846413729E-002
 -0.196218386637292     
 -0.203170729558793     
 -0.315771199315277     
 -0.122094185925606     
 -0.128327454643957     
 -0.277159446127228     
 -0.252337674302699     
 -0.248093710549276     
 -0.226917340771852     
 -0.220157081559364     
 -0.182724483844116     
 -0.176280307392002     
 -0.289408381575615     
 -6.063803410493391E-002
 -6.660309955524631E-002
 -0.239410128718634     
 -0.233688813049895     
 -0.117035797959259     
 -0.110712403186846     
 -0.154324776974978     
 -0.160928628510916     
 -0.293807872667989     
 -5.386454142358561E-002
 -4.772253705187589E-002
 -0.319448341704049     
 -0.313733670677075     
 -9.966078548036103E-002
 -0.106095626504930     
 -0.322362875028483     
 -0.213641300920010     
 -0.206120504686321     
 -0.142034176063566     
 -0.148881615757377     
 -3.975293629078060E-002
 -3.345249691286443E-002
 -0.299405957488317     
 -0.182153280868358     
 -0.189400843165650     
 -0.324536230756782     
 -0.268125047262402     
 -0.265704497842240     
 -8.822130539708145E-002
 -9.477941573572167E-002
 -0.307485911481992     
 -2.510282415009199E-002
 -1.867367456445066E-002
 -0.325458823093716     
 -0.137032428546756     
 -0.129990057461020     
 -7.827691773103856E-002
 -8.478943781407997E-002
 -0.330699246036182     
 -0.281441524639150     
 -0.327213870828866     
 -0.173489940311484     
 -0.166208242751481     
 -0.282176474492633     
 -1.011774571625720E-002
 -3.608541722682295E-003
 -6.871443773960795E-002
 -7.561247352490254E-002
 -0.124576469940942     
 -0.117385195501257     
 -0.199114062557173     
 -0.191072139583408     
  5.053850776235604E-003
  1.157284005661750E-002
 -0.312449393129977     
 -0.232575790839746     
 -0.239563076280445     
 -0.225805650946643     
 -0.217796304459763     
 -5.595089856764496E-002
 -6.318496547063000E-002
 -0.253140603227738     
 -0.247508769630373     
 -0.322206524552634     
  2.671209244264637E-002
  2.027955965405061E-002
  0.319869561521904     
  0.324838503458219     
 -0.106446405782989     
 -0.113587273945974     
  0.334575763117331     
  0.339492859493486     
  0.305255318967167     
  0.310243608874443     
  3.546898605173904E-002
  4.171330987223482E-002
  0.725309601029907     
  0.726952089879874     
 -0.150596122702571     
 -0.158248424359778     
 -0.294809804666277     
 -4.222583751145446E-002
 -4.975142646642392E-002
  0.349410047604848     
  0.354248093737452     
  0.290625664868353     
  0.295605519142516     
 -0.334875776731212     
  5.057674089573391E-002
  5.660099549390889E-002
  0.369074138231682     
  0.364331911747562     
 -0.327264156040801     
  0.275907741465716     
  0.280876401750395     
  0.383936179690605     
  0.379296011513000     
  7.148468229095693E-002
  6.560331654749327E-002
  0.710395967874963     
  0.712336922848739     
  0.261103887561066     
  0.266101030067317     
  0.398820819193779     
  0.394283357832317     
  0.695043595224119     
  0.697164534872298     
  0.246241701436602     
  0.251326224419487     
  8.058022166832082E-002
  8.643221159403022E-002
  0.413729013633571     
  0.409294385346195     
  0.231336524224441     
  0.236543780767014     
  0.679717816332832     
  0.681974664822485     
  9.554873369866654E-002
  0.101435857614104     
  0.428664769063282     
  0.424336260267317     
  0.216388100428878     
  0.221719579645556     
  0.664494883168036     
  0.666873518375899     
  0.110548193567945     
  0.116470662480234     
  0.201383712855903     
  0.206828729629284     
  0.443618463877967     
  0.439403617467871     
  0.125611547519503     
  0.131527562321396     
  0.649348099046426     
  0.651847232991965     
  0.186307365892630     
  0.191858966166057     
  0.140752964298981     
  0.146609545900808     
  0.171154672155119     
  0.176811586610385     
  0.458544713350039     
  0.454454607283759     
  0.155951673878278     
  0.161713702334018     
  0.634229834097009     
  0.636851229423911     
  0.473381755808389     
  0.469425295251971     
  0.619107611679222     
  0.621851637655704     
 -9.580448522411214E-002
 -0.103277948672974     
 -0.337734934426791     
  0.484295508028147     
  0.488116977796403     
 -0.263487551006557     
 -0.267323852480607     
  0.603987132625530     
  0.606851038914537     
  0.502796573239696     
  0.499105687616944     
  0.591878508296482     
  0.588896551142011     
  0.517478855663378     
  0.513911993901663     
  0.576928274286608     
  0.573826427965773     
  0.532214229106822     
  0.528765082873547     
  0.561972149559155     
  0.558750574316475     
  0.543709812110003     
  0.547045903316536     
 -2.776279662607639E-002
 -3.555390413068412E-002
 -0.335104226380181     
 -0.326698692686749     
 -0.296570238506604     
 -0.146105503838117     
 -0.138368010657080     
 -0.174809136756428     
 -0.183139420723526     
 -0.210924981396444     
 -0.202153593720202     
 -0.338045441682921     
 -0.342153500372787     
 -8.043042870323835E-002
 -8.809692728931744E-002
 -1.261294908256609E-002
 -2.060593333015393E-002
 -0.341326244665725     
 -0.309010332551115     
  0.740515779135530     
  0.741547325900009     
 -0.347110487363832     
 -0.341251131795516     
 -0.134516836724086     
 -0.126403618400959     
 -5.131206047266903E-003
 -0.281469954838104     
  2.953643284000477E-003
 -0.341897873450592     
  0.741277131809532     
 -0.280064343573900     
 -0.159819114080997     
 -0.168207364185264     
 -0.351449648934462     
 -6.527714807043211E-002
 -7.352080832549067E-002
  1.054019080259726E-002
  1.856831105274988E-002
 -0.310749641255038     
 -0.108746769925678     
 -0.117014001958617     
  0.738140064965849     
 -0.230641722981345     
 -0.239060610013239     
 -5.124436208887431E-002
 -5.989897040263092E-002
 -0.324100573432794     
 -0.184974886560812     
 -0.194269121702681     
  3.391454395431269E-002
  0.318942311766339     
  0.312889787737790     
  0.333301366688005     
  0.327217786221280     
  2.618468379938171E-002
  0.298663489502588     
  0.304615856384228     
  0.341880634113947     
  0.347931859859302     
  4.886496061339082E-002
  4.166002856640495E-002
 -0.224524818139061     
 -0.215102475998518     
 -0.252826064923191     
 -0.245616693286629     
  0.284237175384633     
  0.290031810923468     
  0.356795557573203     
  0.362768869438237     
  5.692522647011199E-002
  6.368107026745538E-002
  0.757536407086744     
  0.275250650494041     
  0.269576932007342     
  0.377691142173850     
  0.371811903428504     
 -0.348340785711556     
  0.756901728010517     
  0.721769070891625     
  0.725298244235925     
  7.203758256699153E-002
  7.866464711507998E-002
  0.260482220144059     
  0.254776975758233     
  0.392655291537216     
  0.386868723649875     
  0.705641596418064     
  0.709373195058714     
  0.239890218717847     
  0.245761599503562     
  0.401957325964693     
  0.407657270920922     
 -3.734837594938284E-002
 -4.641399705403187E-002
  9.381907802614955E-002
  8.708780681376932E-002
  0.693560993663041     
  0.689722978369735     
  0.230990927695013     
  0.224928102617463     
  0.417099876280088     
  0.422714970713504     
  0.109049823978809     
  0.102160592755666     
  0.678006705976751     
  0.674094971694856     
  0.216096449488494     
  0.209873121076124     
  0.124320626812022     
  0.117335483263924     
  0.437844873817433     
  0.432322203731791     
 -0.295402047934144     
  0.658691279664914     
  0.662676611185310     
  0.201051159850336     
  0.194685715340125     
  0.132677909773413     
  0.139634498817452     
 -0.142868821791976     
 -0.151855028725235     
  0.185831069267992     
  0.179323384288295     
  0.148194914125171     
  0.155017749365120     
  0.453013921321877     
  0.447602363228286     
  0.170452402991425     
  0.163792939669207     
  0.643389057044031     
  0.647457112813360     
  0.462778732494230     
  0.468052955600092     
  0.632242376761830     
  0.628083835375180     
 -0.353561618548431     
  0.477691047103631     
  0.482817833620659     
  0.616977772295811     
  0.612728964341288     
  0.497392314113096     
  0.492401628433443     
  0.597408240754794     
  0.601737893862977     
 -0.267157243249447     
 -0.261521312653002     
  0.511924964200154     
  0.507054504041157     
  0.582209553379526     
  0.586623270074038     
  0.521751449811401     
  0.526518334522529     
  0.571500114571377     
  0.566986362996736     
  0.536593437958032     
  0.541273364694536     
  0.556301226383015     
  0.551697468560583     
  0.755076136075447     
 -0.341992876745527     
 -0.355053471771310     
 -0.294368717801850     
 -3.187089834982852E-002
 -2.239604151144582E-002
 -0.100196822530606     
 -9.142899095816547E-002
 -0.325508935039519     
 -0.358936347809009     
 -0.340301029331897     
 -0.164643470553012     
 -0.174257962329681     
 -0.208019394218832     
 -0.197845047635572     
 -0.353326014814232     
 -1.604120335937437E-002
 -6.326318346356706E-003
  0.756999066266394     
  0.752093870521908     
 -0.309796437339632     
 -0.364219036358798     
 -8.465722012013040E-002
 -7.543238437296892E-002
 -0.356078317150155     
  2.005637741574473E-004
 -0.277930776996786     
 -0.130556307573683     
 -0.121144368633983     
  9.991113254362327E-003
 -0.357702523641939     
 -0.358131344015791     
 -0.281482685399868     
  0.739644876970641     
 -0.369081374947472     
 -6.984830093012498E-002
 -6.003540760161755E-002
 -0.239839424529677     
 -0.229875956280195     
  2.612921095491134E-002
  1.647623368727604E-002
 -0.308646263887180     
 -0.341252552110051     
  0.734350706247955     
 -0.357833085963844     
  0.327124126769450     
  0.319918507477313     
  0.313470041817960     
  0.306408801563331     
  4.136573274547753E-002
  0.770331862045081     
  3.251705177265696E-002
  0.341412987200567     
  0.334153533312734     
  0.292572337501810     
  0.299345140246711     
  0.349100119716037     
  0.356298020228432     
  0.774611136734600     
  5.578382326917626E-002
  4.813585643676146E-002
 -4.678806908720041E-002
 -5.687829144980358E-002
  0.278098328410902     
  0.284443771330833     
  0.364197815389966     
  0.371298198127263     
  0.772826724371370     
 -0.324971838770762     
  6.340289525355791E-002
  7.056040592518931E-002
 -0.363784959511760     
  0.269517948489493     
  0.263369783820912     
  0.386341813111870     
  0.379333225513182     
  0.716976808450517     
  0.722462139827844     
  0.254885590335650     
  0.248520598346213     
  8.588676690909497E-002
  7.850846108213537E-002
  0.401414123454700     
  0.394478302109061     
 -0.179332859825048     
 -0.190020850764542     
  0.700087118883253     
  0.705623720214303     
  0.233582954799108     
  0.240290062751377     
 -0.102736094283157     
 -0.112486126945515     
  9.359101989952628E-002
  0.101326301637589     
  0.774267201115635     
  0.409665676600175     
  0.416543325379226     
  0.689389395416175     
  0.683855213290959     
 -0.242849669435079     
 -0.251574938973382     
  0.225479851274463     
  0.218542879878704     
  0.108770482214325     
  0.116812199172797     
  0.424971017340036     
  0.431790311795333     
  0.210449426988743     
  0.203349374974811     
  0.668153387000726     
  0.673696298884272     
  0.132321197712847     
  0.124180496357301     
  0.195176039842022     
  0.187905810812806     
  0.139948389441189     
  0.147909298988573     
  0.172107460524884     
  0.179561602299508     
  0.447213005717768     
  0.440470197512380     
  0.156021692729597     
  0.163694658364064     
  0.652701825698102     
  0.658278150738505     
 -0.373317526845653     
 -0.223288040065403     
 -0.212285447151004     
  0.462763173524999     
  0.456137998754939     
  0.642919514395327     
  0.637287985400796     
  0.477756765537599     
  0.471316604777342     
  0.627445670474157     
  0.621747205618422     
 -0.370026214397228     
  0.492171901724267     
  0.485885429974711     
 -0.358511738728132     
  0.606011243293571     
  0.611766760742328     
 -4.475605937093938E-002
 -3.384275390610951E-002
  0.506495846062384     
  0.500334577800519     
  0.590575429403689     
  0.596341935513748     
  0.520840667894716     
  0.514776773682595     
  0.581352227716607     
  0.575516821567770     
  0.529360059609312     
  0.535354170739592     
  0.565813884369829     
  0.559866527464436     
  0.544226942432099     
  0.550185411859668     
 -0.295588101997459     
 -0.149261987558546     
 -0.159630472842055     
  0.766949067886962     
 -0.266218601181374     
 -0.258548134186686     
 -9.578304728657323E-002
 -8.555284243552275E-002
 -0.292062998669380     
 -2.809606604151338E-002
 -1.665924611888559E-002
 -0.358325144121395     
  0.755389182992147     
 -0.132790667685077     
 -0.143300214516438     
 -0.376171336902530     
 -0.323408024495443     
 -0.341525785546962     
 -0.369472401423984     
  0.773951670903510     
 -0.376798429163447     
 -1.099361732290939E-002
  5.852299397887247E-004
 -8.067586776831442E-002
 -0.372361827968792     
 -7.001940210654939E-002
  0.748070619432683     
 -0.161470051474729     
 -0.172583522027047     
 -0.193216884125085     
 -0.204907081103385     
 -0.382213446157036     
 -0.309439684168877     
 -0.372088134730407     
 -0.281703138289068     
 -0.275949264573492     
 -0.374914665263290     
 -0.228819922315932     
 -0.240625263183749     
  6.105441742375894E-003
  1.785607291374526E-002
  0.786166549043662     
 -0.124215296339996     
 -0.113406757551834     
 -0.376442306209843     
  0.736806698461325     
 -0.387910897484892     
 -0.359725420500278     
  3.489994201453710E-002
  2.307204894646236E-002
  0.321362003032752     
  0.313169857404672     
  0.334166227490152     
  0.325653228534162     
 -6.367567686198382E-002
  0.309346099372699     
  0.301238466026360     
  4.842551442460273E-002
  0.792713451936553     
 -0.305551065097901     
 -0.339413267921272     
 -5.161773476989023E-002
  0.729340320294021     
  3.935341327915542E-002
  0.349560266004851     
  0.341115474483029     
  0.294081741453557     
  0.286804765994501     
  0.789289716550173     
  6.163211245214168E-002
  0.356405480732426     
  0.364714964515789     
  5.475732641395292E-002
  0.272062786990328     
  0.278357440415105     
  0.379871361435349     
  0.371676494565529     
  7.754465217044419E-002
  6.987668250785389E-002
  0.263612446458100     
  0.257231154941977     
 -0.380117501070113     
 -0.392931183713933     
  0.395019117267901     
  0.386893743445129     
  0.710896846188232     
  0.718337245482872     
  0.249574403722657     
  0.242329048380392     
  0.792650289515062     
  9.324013705951192E-002
  8.490199638446495E-002
  0.410170211884673     
  0.402074374442827     
  0.227345982184653     
  0.234970258038813     
  0.791511283991624     
  0.693594199985180     
  0.700877098475497     
  9.998835026890587E-002
  0.108990156953908     
 -0.107258024335521     
  0.219998030449617     
  0.212233091889532     
 -9.624888950939693E-002
  0.417336193703856     
  0.425422060229871     
  0.115263499758568     
  0.124711138371870     
  0.677591029000431     
  0.684780123405285     
  0.204803128752958     
  0.196900160766654     
 -0.144569631515935     
 -0.156113494971301     
  0.140393844074289     
  0.131009908920760     
  0.189257239899531     
  0.181095683360157     
  0.156257220933726     
  0.147554728318416     
  0.432856735927678     
  0.440920954392614     
  0.172844144494791     
  0.164509161119438     
 -0.324397488561753     
  0.662053947029624     
  0.669211070830621     
  0.772532041898929     
  0.456872099142055     
  0.448858577402257     
  0.646664513404499     
  0.653832919905085     
  0.473607199311240     
  0.465733041396955     
  0.638350710041969     
  0.631138413803060     
  0.487074227926083     
  0.479608167182929     
 -0.208839360115842     
 -0.221589884052127     
  0.622476328817024     
  0.615203635118965     
 -0.249531377642861     
 -0.259721999446877     
  0.493896426528941     
  0.501448286425557     
  0.598355352622686     
  0.605654931466790     
  0.515156445303275     
  0.507927671042824     
  0.583889614880716     
  0.590928862644311     
  0.529558085711061     
  0.522165027039202     
  0.569504061070239     
  0.576902070570793     
  0.536576830284601     
  0.543717850179446     
  0.551194662320858     
  0.558627209753203     
 -0.173854234046948     
 -0.185944540700241     
 -0.387156946808480     
 -4.186569747451748E-002
 -2.843238006226169E-002
  0.782503688422836     
 -0.295439893404579     
 -0.376874884250735     
  0.762918255899956     
 -8.958241009527734E-002
 -7.758503626197003E-002
 -0.379502365406140     
  0.791924399058849     
 -0.357050799128986     
 -0.319806769878086     
 -0.289770017868704     
 -2.333295551684895E-002
 -0.394073424446490     
 -9.737559718490715E-003
  0.752838655533641     
 -0.125549578312660     
 -0.137430461667508     
 -0.388529678877470     
 -0.385212427783568     
 -0.341656177711993     
 -0.397206414852324     
 -0.390277536759763     
  8.188619554610853E-003
 -5.087941927703972E-003
 -0.401455334324134     
  0.743118948261590     
  0.802239522111142     
 -0.393679554516101     
 -0.227501225818161     
 -0.241467501173093     
 -0.306173922342862     
 -0.157175498451112     
 -0.169432543058424     
 -0.187136995284821     
 -0.200386488909198     
 -0.395854953304579     
 -0.114320893599338     
 -0.102049413729843     
 -0.284068822436418     
 -0.275753026326888     
  1.267952119274603E-002
 -0.400785540819494     
  2.714169976841041E-002
  0.790796643420125     
 -0.408133512320699     
  0.732558106390918     
  0.811596404694557     
  4.828170655138608E-002
  3.103069300372732E-002
  0.806096577518462     
  0.322613931736768     
  0.312619186099033     
  0.342806832519328     
  0.332909131171376     
  0.305096563240806     
  0.295858887360902     
 -0.360770279627282     
  4.635880557383730E-002
  0.357838319783729     
  0.348415795923147     
  0.722914927379284     
  0.287796397757486     
  0.281021413238247     
 -0.376259826031025     
 -0.336324675706546     
  6.119203275176475E-002
  0.363854005885322     
  0.373296082993111     
  0.265892805470894     
  0.270590434738456     
  6.900071819150501E-002
  0.812001205696773     
  8.475464434351265E-002
  7.629939361271885E-002
  0.258649939137802     
  0.251266610446061     
 -0.299419885490362     
  0.388429884700829     
  0.379288257525043     
  0.809231602607241     
  0.244937254752170     
  0.236089027291286     
  9.097729416608348E-002
  0.100749113998180     
  0.403762050776869     
  0.394417729608380     
  0.702688025597633     
  0.712032998895913     
 -0.413922512135928     
  0.221360384311375     
  0.229435837804630     
  0.811243924418778     
  0.778730583819324     
 -5.411641175525267E-002
  0.106283670199350     
  0.116917543154280     
  0.409557052121400     
  0.418741828679180     
  0.686606407265791     
  0.695380254924887     
  0.214735485571836     
  0.205952403687419     
  0.132653365101227     
  0.121235586304437     
 -0.398638420064300     
 -0.244864677690341     
 -0.257587977000366     
  0.199078074862287     
  0.190900724225868     
 -3.883181376975103E-002
  0.148340237691451     
  0.137794914329261     
  0.174263391530551     
  0.183944065584788     
  0.424794531181331     
  0.434255430459809     
  0.164200189084348     
  0.155995051993881     
  0.671388477899382     
  0.680356334954558     
  0.440613866064087     
  0.449873626704467     
  0.655882211815331     
  0.664505046773482     
  0.466767199305911     
  0.457246545188601     
  0.640939340834973     
  0.649872830915390     
 -7.199821099810039E-002
  0.490334993208146     
  0.481140343015642     
  0.633658284610378     
  0.624969397484551     
  0.608953979505793     
  0.618048827190876     
  0.517400342209314     
  0.508395795156106     
  0.585431263831261     
  0.594403205445272     
 -5.761655890158451E-002
 -0.141195003097524     
 -0.154244497673522     
  0.535863625146686     
  0.544838182795830     
  0.561037951756537     
  0.570284959151903     
  0.798408271911102     
  0.770746014574772     
 -0.322345793980624     
  0.810403660900360     
 -0.419028079658741     
 -0.396862249226603     
 -0.403458249334835     
 -3.749613229169790E-002
 -2.008015762124395E-002
 -0.164789279728494     